Generated with MDTraj, t= 0.0
 48
    1UNL     C1    1  -0.195   0.374   0.047
    1UNL     C2    2  -0.202   0.232   0.006
    1UNL     C3    3  -0.087   0.164  -0.033
    1UNL     C4    4  -0.090   0.031  -0.072
    1UNL     O1    5   0.024  -0.041  -0.111
    1UNL     C5    6   0.140  -0.018  -0.031
    1UNL     O2    7   0.252  -0.099  -0.067
    1UNL     C6    8   0.378  -0.055  -0.010
    1UNL     C7    9   0.440   0.048  -0.103
    1UNL     O3   10   0.437   0.003  -0.235
    1UNL     C8   11   0.362  -0.006   0.137
    1UNL     O4   12   0.475  -0.034   0.218
    1UNL     C9   13   0.238  -0.071   0.201
    1UNL     O5   14   0.229  -0.038   0.337
    1UNL    C10   15   0.109  -0.033   0.123
    1UNL     O6   16   0.008  -0.128   0.148
    1UNL    C11   17  -0.213  -0.037  -0.072
    1UNL    C12   18  -0.216  -0.183  -0.111
    1UNL    C13   19  -0.251  -0.269   0.010
    1UNL    C14   20  -0.310  -0.207  -0.228
    1UNL    C15   21  -0.329   0.028  -0.032
    1UNL     O7   22  -0.450  -0.036  -0.029
    1UNL    C16   23  -0.324   0.163   0.008
    1UNL     O8   24  -0.445   0.220   0.046
    1UNL     H1   25  -0.258   0.436  -0.016
    1UNL     H2   26  -0.228   0.386   0.151
    1UNL     H3   27  -0.093   0.412   0.041
    1UNL     H4   28   0.006   0.218  -0.036
    1UNL     H5   29   0.171   0.085  -0.053
    1UNL     H6   30   0.441  -0.145  -0.009
    1UNL     H7   31   0.386   0.143  -0.097
    1UNL     H8   32   0.544   0.069  -0.076
    1UNL     H9   33   0.350  -0.041  -0.251
    1UNL    H10   34   0.348   0.103   0.138
    1UNL    H11   35   0.557   0.000   0.176
    1UNL    H12   36   0.249  -0.181   0.195
    1UNL    H13   37   0.320  -0.039   0.375
    1UNL    H14   38   0.073   0.063   0.163
    1UNL    H15   39   0.004  -0.144   0.245
    1UNL    H16   40  -0.113  -0.209  -0.143
    1UNL    H17   41  -0.350  -0.244   0.047
    1UNL    H18   42  -0.180  -0.253   0.091
    1UNL    H19   43  -0.251  -0.375  -0.015
    1UNL    H20   44  -0.283  -0.146  -0.314
    1UNL    H21   45  -0.412  -0.180  -0.200
    1UNL    H22   46  -0.311  -0.311  -0.259
    1UNL    H23   47  -0.517   0.029   0.003
    1UNL    H24   48  -0.432   0.314   0.072
   0.00000   0.00000   0.00000   0.00000   0.00000   0.00000   0.00000   0.00000   0.00000
Generated with MDTraj, t= 1.0
 48
    1UNL     C1    1  -0.227   0.396  -0.036
    1UNL     C2    2  -0.221   0.242  -0.026
    1UNL     C3    3  -0.103   0.176  -0.059
    1UNL     C4    4  -0.089   0.039  -0.071
    1UNL     O1    5   0.033  -0.026  -0.103
    1UNL     C5    6   0.154  -0.002  -0.022
    1UNL     O2    7   0.253  -0.093  -0.064
    1UNL     C6    8   0.386  -0.059  -0.007
    1UNL     C7    9   0.451   0.052  -0.090
    1UNL     O3   10   0.424   0.035  -0.220
    1UNL     C8   11   0.378  -0.029   0.146
    1UNL     O4   12   0.488  -0.081   0.218
    1UNL     C9   13   0.251  -0.085   0.205
    1UNL     O5   14   0.240  -0.067   0.346
    1UNL    C10   15   0.125  -0.031   0.135
    1UNL     O6   16   0.017  -0.123   0.142
    1UNL    C11   17  -0.208  -0.038  -0.047
    1UNL    C12   18  -0.221  -0.176  -0.110
    1UNL    C13   19  -0.248  -0.295  -0.009
    1UNL    C14   20  -0.327  -0.174  -0.224
    1UNL    C15   21  -0.332   0.023  -0.002
    1UNL     O7   22  -0.445  -0.052   0.032
    1UNL    C16   23  -0.334   0.159   0.001
    1UNL     O8   24  -0.457   0.217   0.027
    1UNL     H1   25  -0.265   0.443   0.057
    1UNL     H2   26  -0.130   0.429  -0.051
    1UNL     H3   27  -0.287   0.421  -0.125
    1UNL     H4   28  -0.011   0.240  -0.083
    1UNL     H5   29   0.176   0.106  -0.026
    1UNL     H6   30   0.436  -0.155  -0.032
    1UNL     H7   31   0.419   0.155  -0.069
    1UNL     H8   32   0.559   0.050  -0.090
    1UNL     H9   33   0.337  -0.010  -0.248
    1UNL    H10   34   0.370   0.077   0.177
    1UNL    H11   35   0.562  -0.023   0.187
    1UNL    H12   36   0.269  -0.192   0.211
    1UNL    H13   37   0.221   0.023   0.368
    1UNL    H14   38   0.082   0.056   0.181
    1UNL    H15   39  -0.035  -0.136   0.056
    1UNL    H16   40  -0.125  -0.195  -0.159
    1UNL    H17   41  -0.345  -0.273   0.035
    1UNL    H18   42  -0.175  -0.293   0.076
    1UNL    H19   43  -0.245  -0.389  -0.058
    1UNL    H20   44  -0.301  -0.110  -0.316
    1UNL    H21   45  -0.419  -0.128  -0.188
    1UNL    H22   46  -0.342  -0.275  -0.249
    1UNL    H23   47  -0.503   0.013   0.083
    1UNL    H24   48  -0.437   0.316   0.016
   0.00000   0.00000   0.00000   0.00000   0.00000   0.00000   0.00000   0.00000   0.00000
Generated with MDTraj, t= 2.0
 48
    1UNL     C1    1  -0.223   0.392  -0.063
    1UNL     C2    2  -0.223   0.245  -0.036
    1UNL     C3    3  -0.103   0.179  -0.070
    1UNL     C4    4  -0.091   0.043  -0.073
    1UNL     O1    5   0.023  -0.031  -0.098
    1UNL     C5    6   0.138  -0.013  -0.017
    1UNL     O2    7   0.252  -0.086  -0.067
    1UNL     C6    8   0.379  -0.043  -0.012
    1UNL     C7    9   0.431   0.079  -0.083
    1UNL     O3   10   0.439   0.063  -0.220
    1UNL     C8   11   0.370  -0.037   0.140
    1UNL     O4   12   0.488  -0.102   0.204
    1UNL     C9   13   0.245  -0.101   0.205
    1UNL     O5   14   0.246  -0.068   0.349
    1UNL    C10   15   0.114  -0.050   0.136
    1UNL     O6   16   0.013  -0.145   0.154
    1UNL    C11   17  -0.209  -0.031  -0.057
    1UNL    C12   18  -0.214  -0.181  -0.092
    1UNL    C13   19  -0.258  -0.261   0.022
    1UNL    C14   20  -0.288  -0.210  -0.223
    1UNL    C15   21  -0.326   0.026  -0.012
    1UNL     O7   22  -0.440  -0.044   0.018
    1UNL    C16   23  -0.336   0.172  -0.004
    1UNL     O8   24  -0.448   0.223   0.051
    1UNL     H1   25  -0.128   0.447  -0.041
    1UNL     H2   26  -0.238   0.408  -0.165
    1UNL     H3   27  -0.307   0.444  -0.014
    1UNL     H4   28  -0.024   0.237  -0.095
    1UNL     H5   29   0.159   0.098  -0.021
    1UNL     H6   30   0.455  -0.118  -0.043
    1UNL     H7   31   0.358   0.161  -0.068
    1UNL     H8   32   0.527   0.110  -0.049
    1UNL     H9   33   0.360   0.015  -0.252
    1UNL    H10   34   0.368   0.069   0.175
    1UNL    H11   35   0.569  -0.056   0.172
    1UNL    H12   36   0.263  -0.205   0.193
    1UNL    H13   37   0.284  -0.141   0.401
    1UNL    H14   38   0.068   0.038   0.172
    1UNL    H15   39  -0.050  -0.132   0.077
    1UNL    H16   40  -0.111  -0.205  -0.117
    1UNL    H17   41  -0.350  -0.222   0.066
    1UNL    H18   42  -0.191  -0.279   0.113
    1UNL    H19   43  -0.266  -0.358  -0.015
    1UNL    H20   44  -0.256  -0.123  -0.293
    1UNL    H21   45  -0.397  -0.189  -0.221
    1UNL    H22   46  -0.257  -0.303  -0.260
    1UNL    H23   47  -0.518   0.014   0.014
    1UNL    H24   48  -0.431   0.318   0.091
   0.00000   0.00000   0.00000   0.00000   0.00000   0.00000   0.00000   0.00000   0.00000
Generated with MDTraj, t= 3.0
 48
    1UNL     C1    1  -0.184   0.376  -0.005
    1UNL     C2    2  -0.205   0.232  -0.034
    1UNL     C3    3  -0.095   0.156  -0.058
    1UNL     C4    4  -0.096   0.022  -0.073
    1UNL     O1    5   0.020  -0.056  -0.102
    1UNL     C5    6   0.141  -0.012  -0.034
    1UNL     O2    7   0.269  -0.076  -0.078
    1UNL     C6    8   0.390  -0.032  -0.010
    1UNL     C7    9   0.438   0.099  -0.081
    1UNL     O3   10   0.422   0.095  -0.227
    1UNL     C8   11   0.378  -0.028   0.144
    1UNL     O4   12   0.496  -0.090   0.201
    1UNL     C9   13   0.253  -0.099   0.193
    1UNL     O5   14   0.220  -0.096   0.330
    1UNL    C10   15   0.124  -0.043   0.124
    1UNL     O6   16   0.012  -0.129   0.162
    1UNL    C11   17  -0.217  -0.043  -0.049
    1UNL    C12   18  -0.220  -0.192  -0.065
    1UNL    C13   19  -0.313  -0.249   0.052
    1UNL    C14   20  -0.271  -0.238  -0.199
    1UNL    C15   21  -0.331   0.033  -0.026
    1UNL     O7   22  -0.452  -0.031  -0.023
    1UNL    C16   23  -0.330   0.172  -0.010
    1UNL     O8   24  -0.450   0.236   0.018
    1UNL     H1   25  -0.117   0.430  -0.073
    1UNL     H2   26  -0.276   0.432  -0.008
    1UNL     H3   27  -0.154   0.391   0.098
    1UNL     H4   28   0.003   0.199  -0.071
    1UNL     H5   29   0.173   0.096  -0.050
    1UNL     H6   30   0.473  -0.102  -0.032
    1UNL     H7   31   0.378   0.180  -0.031
    1UNL     H8   32   0.538   0.119  -0.055
    1UNL     H9   33   0.332   0.045  -0.226
    1UNL    H10   34   0.361   0.080   0.177
    1UNL    H11   35   0.576  -0.059   0.152
    1UNL    H12   36   0.263  -0.202   0.171
    1UNL    H13   37   0.128  -0.141   0.337
    1UNL    H14   38   0.107   0.045   0.175
    1UNL    H15   39  -0.065  -0.103   0.114
    1UNL    H16   40  -0.119  -0.229  -0.058
    1UNL    H17   41  -0.418  -0.220   0.043
    1UNL    H18   42  -0.294  -0.213   0.158
    1UNL    H19   43  -0.290  -0.352   0.063
    1UNL    H20   44  -0.230  -0.192  -0.294
    1UNL    H21   45  -0.372  -0.194  -0.210
    1UNL    H22   46  -0.259  -0.345  -0.206
    1UNL    H23   47  -0.519   0.034   0.016
    1UNL    H24   48  -0.445   0.309   0.090
   0.00000   0.00000   0.00000   0.00000   0.00000   0.00000   0.00000   0.00000   0.00000
Generated with MDTraj, t= 4.0
 48
    1UNL     C1    1  -0.164   0.371   0.029
    1UNL     C2    2  -0.190   0.226  -0.005
    1UNL     C3    3  -0.084   0.152  -0.039
    1UNL     C4    4  -0.094   0.012  -0.065
    1UNL     O1    5   0.021  -0.073  -0.084
    1UNL     C5    6   0.138  -0.031  -0.019
    1UNL     O2    7   0.261  -0.089  -0.072
    1UNL     C6    8   0.378  -0.024  -0.021
    1UNL     C7    9   0.401   0.119  -0.076
    1UNL     O3   10   0.394   0.107  -0.220
    1UNL     C8   11   0.383  -0.026   0.135
    1UNL     O4   12   0.510  -0.074   0.189
    1UNL     C9   13   0.260  -0.107   0.190
    1UNL     O5   14   0.249  -0.115   0.329
    1UNL    C10   15   0.135  -0.041   0.134
    1UNL     O6   16   0.015  -0.102   0.190
    1UNL    C11   17  -0.225  -0.051  -0.066
    1UNL    C12   18  -0.229  -0.202  -0.071
    1UNL    C13   19  -0.306  -0.255   0.052
    1UNL    C14   20  -0.296  -0.251  -0.190
    1UNL    C15   21  -0.338   0.039  -0.050
    1UNL     O7   22  -0.464  -0.020  -0.059
    1UNL    C16   23  -0.318   0.174  -0.025
    1UNL     O8   24  -0.440   0.253  -0.012
    1UNL     H1   25  -0.154   0.428  -0.061
    1UNL     H2   26  -0.249   0.416   0.088
    1UNL     H3   27  -0.080   0.376   0.094
    1UNL     H4   28   0.020   0.194  -0.045
    1UNL     H5   29   0.165   0.072  -0.057
    1UNL     H6   30   0.463  -0.085  -0.053
    1UNL     H7   31   0.328   0.197  -0.041
    1UNL     H8   32   0.498   0.155  -0.053
    1UNL     H9   33   0.331   0.042  -0.257
    1UNL    H10   34   0.363   0.082   0.169
    1UNL    H11   35   0.582  -0.018   0.153
    1UNL    H12   36   0.262  -0.208   0.152
    1UNL    H13   37   0.156  -0.134   0.362
    1UNL    H14   38   0.145   0.056   0.172
    1UNL    H15   39  -0.057  -0.106   0.128
    1UNL    H16   40  -0.127  -0.235  -0.069
    1UNL    H17   41  -0.407  -0.208   0.047
    1UNL    H18   42  -0.270  -0.216   0.148
    1UNL    H19   43  -0.294  -0.363   0.060
    1UNL    H20   44  -0.232  -0.224  -0.275
    1UNL    H21   45  -0.378  -0.187  -0.222
    1UNL    H22   46  -0.309  -0.365  -0.199
    1UNL    H23   47  -0.528   0.050  -0.062
    1UNL    H24   48  -0.440   0.316  -0.086
   0.00000   0.00000   0.00000   0.00000   0.00000   0.00000   0.00000   0.00000   0.00000
Generated with MDTraj, t= 5.0
 48
    1UNL     C1    1  -0.186   0.379   0.013
    1UNL     C2    2  -0.192   0.227  -0.005
    1UNL     C3    3  -0.081   0.149  -0.004
    1UNL     C4    4  -0.093   0.013  -0.040
    1UNL     O1    5   0.016  -0.070  -0.051
    1UNL     C5    6   0.136  -0.026   0.005
    1UNL     O2    7   0.252  -0.086  -0.060
    1UNL     C6    8   0.378  -0.029  -0.024
    1UNL     C7    9   0.394   0.109  -0.084
    1UNL     O3   10   0.343   0.106  -0.212
    1UNL     C8   11   0.400  -0.033   0.136
    1UNL     O4   12   0.520  -0.103   0.170
    1UNL     C9   13   0.281  -0.103   0.206
    1UNL     O5   14   0.301  -0.080   0.342
    1UNL    C10   15   0.148  -0.040   0.161
    1UNL     O6   16   0.035  -0.119   0.205
    1UNL    C11   17  -0.224  -0.043  -0.069
    1UNL    C12   18  -0.242  -0.189  -0.098
    1UNL    C13   19  -0.298  -0.267   0.032
    1UNL    C14   20  -0.336  -0.222  -0.216
    1UNL    C15   21  -0.338   0.031  -0.069
    1UNL     O7   22  -0.461  -0.024  -0.087
    1UNL    C16   23  -0.318   0.175  -0.035
    1UNL     O8   24  -0.440   0.258  -0.043
    1UNL     H1   25  -0.231   0.428  -0.071
    1UNL     H2   26  -0.245   0.415   0.103
    1UNL     H3   27  -0.087   0.412   0.034
    1UNL     H4   28   0.009   0.189   0.026
    1UNL     H5   29   0.156   0.078  -0.033
    1UNL     H6   30   0.453  -0.100  -0.061
    1UNL     H7   31   0.331   0.187  -0.031
    1UNL     H8   32   0.495   0.145  -0.094
    1UNL     H9   33   0.273   0.029  -0.233
    1UNL    H10   34   0.405   0.072   0.185
    1UNL    H11   35   0.602  -0.053   0.155
    1UNL    H12   36   0.278  -0.209   0.173
    1UNL    H13   37   0.249  -0.129   0.406
    1UNL    H14   38   0.151   0.058   0.201
    1UNL    H15   39   0.044  -0.214   0.167
    1UNL    H16   40  -0.142  -0.218  -0.119
    1UNL    H17   41  -0.386  -0.205   0.062
    1UNL    H18   42  -0.239  -0.276   0.120
    1UNL    H19   43  -0.315  -0.375   0.005
    1UNL    H20   44  -0.294  -0.179  -0.304
    1UNL    H21   45  -0.436  -0.176  -0.213
    1UNL    H22   46  -0.336  -0.335  -0.243
    1UNL    H23   47  -0.527   0.024  -0.024
    1UNL    H24   48  -0.493   0.241  -0.117
   0.00000   0.00000   0.00000   0.00000   0.00000   0.00000   0.00000   0.00000   0.00000
Generated with MDTraj, t= 6.0
 48
    1UNL     C1    1  -0.209   0.375   0.025
    1UNL     C2    2  -0.205   0.238  -0.014
    1UNL     C3    3  -0.100   0.157   0.005
    1UNL     C4    4  -0.106   0.018  -0.021
    1UNL     O1    5  -0.000  -0.080  -0.006
    1UNL     C5    6   0.128  -0.034   0.019
    1UNL     O2    7   0.242  -0.095  -0.053
    1UNL     C6    8   0.375  -0.049  -0.030
    1UNL     C7    9   0.380   0.091  -0.091
    1UNL     O3   10   0.311   0.100  -0.212
    1UNL     C8   11   0.413  -0.044   0.130
    1UNL     O4   12   0.525  -0.123   0.146
    1UNL     C9   13   0.301  -0.085   0.223
    1UNL     O5   14   0.323  -0.041   0.343
    1UNL    C10   15   0.155  -0.043   0.178
    1UNL     O6   16   0.063  -0.142   0.231
    1UNL    C11   17  -0.224  -0.045  -0.064
    1UNL    C12   18  -0.225  -0.188  -0.120
    1UNL    C13   19  -0.281  -0.277  -0.002
    1UNL    C14   20  -0.309  -0.199  -0.243
    1UNL    C15   21  -0.333   0.042  -0.069
    1UNL     O7   22  -0.465  -0.011  -0.083
    1UNL    C16   23  -0.327   0.183  -0.049
    1UNL     O8   24  -0.438   0.259  -0.068
    1UNL     H1   25  -0.286   0.429  -0.027
    1UNL     H2   26  -0.234   0.390   0.130
    1UNL     H3   27  -0.112   0.424   0.015
    1UNL     H4   28  -0.015   0.202   0.059
    1UNL     H5   29   0.141   0.070  -0.018
    1UNL     H6   30   0.445  -0.116  -0.079
    1UNL     H7   31   0.329   0.164  -0.018
    1UNL     H8   32   0.478   0.130  -0.114
    1UNL     H9   33   0.265   0.022  -0.227
    1UNL    H10   34   0.441   0.065   0.157
    1UNL    H11   35   0.604  -0.073   0.115
    1UNL    H12   36   0.299  -0.198   0.220
    1UNL    H13   37   0.277  -0.086   0.418
    1UNL    H14   38   0.138   0.051   0.226
    1UNL    H15   39  -0.008  -0.152   0.166
    1UNL    H16   40  -0.125  -0.210  -0.141
    1UNL    H17   41  -0.388  -0.254   0.024
    1UNL    H18   42  -0.237  -0.249   0.089
    1UNL    H19   43  -0.250  -0.386  -0.008
    1UNL    H20   44  -0.283  -0.115  -0.304
    1UNL    H21   45  -0.416  -0.177  -0.213
    1UNL    H22   46  -0.289  -0.292  -0.306
    1UNL    H23   47  -0.526   0.065  -0.080
    1UNL    H24   48  -0.494   0.239  -0.145
   0.00000   0.00000   0.00000   0.00000   0.00000   0.00000   0.00000   0.00000   0.00000
Generated with MDTraj, t= 7.0
 48
    1UNL     C1    1  -0.201   0.370   0.040
    1UNL     C2    2  -0.209   0.222   0.014
    1UNL     C3    3  -0.105   0.135   0.036
    1UNL     C4    4  -0.112   0.008  -0.001
    1UNL     O1    5  -0.006  -0.090   0.016
    1UNL     C5    6   0.123  -0.036   0.039
    1UNL     O2    7   0.228  -0.098  -0.039
    1UNL     C6    8   0.357  -0.041  -0.035
    1UNL     C7    9   0.358   0.087  -0.106
    1UNL     O3   10   0.294   0.071  -0.232
    1UNL     C8   11   0.411  -0.036   0.113
    1UNL     O4   12   0.525  -0.128   0.121
    1UNL     C9   13   0.306  -0.070   0.222
    1UNL     O5   14   0.334  -0.032   0.350
    1UNL    C10   15   0.160  -0.034   0.191
    1UNL     O6   16   0.074  -0.119   0.255
    1UNL    C11   17  -0.223  -0.042  -0.069
    1UNL    C12   18  -0.220  -0.179  -0.118
    1UNL    C13   19  -0.296  -0.266  -0.014
    1UNL    C14   20  -0.261  -0.201  -0.265
    1UNL    C15   21  -0.332   0.047  -0.089
    1UNL     O7   22  -0.456  -0.003  -0.137
    1UNL    C16   23  -0.325   0.180  -0.046
    1UNL     O8   24  -0.437   0.265  -0.055
    1UNL     H1   25  -0.303   0.406   0.050
    1UNL     H2   26  -0.148   0.397   0.126
    1UNL     H3   27  -0.146   0.423  -0.042
    1UNL     H4   28  -0.017   0.170   0.090
    1UNL     H5   29   0.128   0.066  -0.005
    1UNL     H6   30   0.425  -0.112  -0.083
    1UNL     H7   31   0.306   0.166  -0.041
    1UNL     H8   32   0.462   0.115  -0.116
    1UNL     H9   33   0.240  -0.022  -0.221
    1UNL    H10   34   0.439   0.074   0.140
    1UNL    H11   35   0.604  -0.092   0.075
    1UNL    H12   36   0.300  -0.184   0.235
    1UNL    H13   37   0.285  -0.082   0.424
    1UNL    H14   38   0.141   0.062   0.237
    1UNL    H15   39   0.022  -0.164   0.184
    1UNL    H16   40  -0.121  -0.213  -0.114
    1UNL    H17   41  -0.402  -0.236  -0.004
    1UNL    H18   42  -0.268  -0.264   0.088
    1UNL    H19   43  -0.284  -0.369  -0.059
    1UNL    H20   44  -0.192  -0.146  -0.334
    1UNL    H21   45  -0.366  -0.154  -0.273
    1UNL    H22   46  -0.246  -0.306  -0.294
    1UNL    H23   47  -0.515   0.057  -0.092
    1UNL    H24   48  -0.483   0.262  -0.148
   0.00000   0.00000   0.00000   0.00000   0.00000   0.00000   0.00000   0.00000   0.00000
Generated with MDTraj, t= 8.0
 48
    1UNL     C1    1  -0.216   0.346   0.101
    1UNL     C2    2  -0.218   0.212   0.034
    1UNL     C3    3  -0.111   0.122   0.063
    1UNL     C4    4  -0.104  -0.004   0.009
    1UNL     O1    5  -0.006  -0.101   0.032
    1UNL     C5    6   0.122  -0.039   0.037
    1UNL     O2    7   0.216  -0.122  -0.034
    1UNL     C6    8   0.348  -0.050  -0.033
    1UNL     C7    9   0.360   0.075  -0.123
    1UNL     O3   10   0.275   0.051  -0.236
    1UNL     C8   11   0.408  -0.024   0.107
    1UNL     O4   12   0.545  -0.091   0.111
    1UNL     C9   13   0.312  -0.074   0.215
    1UNL     O5   14   0.356  -0.045   0.346
    1UNL    C10   15   0.172  -0.011   0.191
    1UNL     O6   16   0.074  -0.058   0.278
    1UNL    C11   17  -0.223  -0.048  -0.066
    1UNL    C12   18  -0.232  -0.189  -0.113
    1UNL    C13   19  -0.356  -0.257  -0.053
    1UNL    C14   20  -0.241  -0.185  -0.257
    1UNL    C15   21  -0.330   0.039  -0.096
    1UNL     O7   22  -0.434   0.007  -0.174
    1UNL    C16   23  -0.318   0.176  -0.047
    1UNL     O8   24  -0.417   0.261  -0.083
    1UNL     H1   25  -0.281   0.339   0.188
    1UNL     H2   26  -0.120   0.379   0.131
    1UNL     H3   27  -0.249   0.426   0.031
    1UNL     H4   28  -0.039   0.155   0.131
    1UNL     H5   29   0.127   0.045  -0.037
    1UNL     H6   30   0.418  -0.119  -0.084
    1UNL     H7   31   0.327   0.165  -0.060
    1UNL     H8   32   0.463   0.093  -0.151
    1UNL     H9   33   0.234  -0.030  -0.222
    1UNL    H10   34   0.416   0.093   0.117
    1UNL    H11   35   0.616  -0.051   0.056
    1UNL    H12   36   0.300  -0.188   0.208
    1UNL    H13   37   0.298  -0.083   0.419
    1UNL    H14   38   0.189   0.094   0.214
    1UNL    H15   39  -0.006  -0.074   0.218
    1UNL    H16   40  -0.148  -0.245  -0.080
    1UNL    H17   41  -0.439  -0.185  -0.051
    1UNL    H18   42  -0.351  -0.265   0.056
    1UNL    H19   43  -0.381  -0.350  -0.110
    1UNL    H20   44  -0.143  -0.140  -0.301
    1UNL    H21   45  -0.327  -0.115  -0.287
    1UNL    H22   46  -0.239  -0.284  -0.298
    1UNL    H23   47  -0.508   0.081  -0.170
    1UNL    H24   48  -0.430   0.251  -0.184
   0.00000   0.00000   0.00000   0.00000   0.00000   0.00000   0.00000   0.00000   0.00000
Generated with MDTraj, t= 9.0
 48
    1UNL     C1    1  -0.220   0.330   0.139
    1UNL     C2    2  -0.221   0.197   0.073
    1UNL     C3    3  -0.127   0.104   0.098
    1UNL     C4    4  -0.123  -0.015   0.033
    1UNL     O1    5  -0.013  -0.101   0.054
    1UNL     C5    6   0.112  -0.039   0.034
    1UNL     O2    7   0.208  -0.116  -0.033
    1UNL     C6    8   0.346  -0.060  -0.039
    1UNL     C7    9   0.333   0.055  -0.140
    1UNL     O3   10   0.265   0.022  -0.259
    1UNL     C8   11   0.398  -0.022   0.100
    1UNL     O4   12   0.527  -0.082   0.115
    1UNL     C9   13   0.310  -0.059   0.206
    1UNL     O5   14   0.361  -0.048   0.337
    1UNL    C10   15   0.168   0.007   0.176
    1UNL     O6   16   0.086  -0.013   0.289
    1UNL    C11   17  -0.222  -0.049  -0.059
    1UNL    C12   18  -0.228  -0.187  -0.117
    1UNL    C13   19  -0.368  -0.255  -0.089
    1UNL    C14   20  -0.194  -0.198  -0.266
    1UNL    C15   21  -0.315   0.047  -0.103
    1UNL     O7   22  -0.413   0.022  -0.192
    1UNL    C16   23  -0.310   0.169  -0.042
    1UNL     O8   24  -0.389   0.271  -0.089
    1UNL     H1   25  -0.193   0.322   0.245
    1UNL     H2   26  -0.158   0.405   0.088
    1UNL     H3   27  -0.315   0.382   0.135
    1UNL     H4   28  -0.039   0.125   0.162
    1UNL     H5   29   0.102   0.048  -0.033
    1UNL     H6   30   0.408  -0.141  -0.084
    1UNL     H7   31   0.282   0.145  -0.092
    1UNL     H8   32   0.432   0.085  -0.168
    1UNL     H9   33   0.200  -0.060  -0.237
    1UNL    H10   34   0.415   0.094   0.098
    1UNL    H11   35   0.596  -0.050   0.053
    1UNL    H12   36   0.292  -0.172   0.202
    1UNL    H13   37   0.293  -0.009   0.392
    1UNL    H14   38   0.180   0.119   0.176
    1UNL    H15   39   0.065  -0.105   0.300
    1UNL    H16   40  -0.154  -0.242  -0.061
    1UNL    H17   41  -0.447  -0.221  -0.156
    1UNL    H18   42  -0.422  -0.216   0.001
    1UNL    H19   43  -0.353  -0.365  -0.098
    1UNL    H20   44  -0.086  -0.166  -0.299
    1UNL    H21   45  -0.260  -0.133  -0.332
    1UNL    H22   46  -0.189  -0.301  -0.297
    1UNL    H23   47  -0.494   0.075  -0.182
    1UNL    H24   48  -0.385   0.281  -0.186
   0.00000   0.00000   0.00000   0.00000   0.00000   0.00000   0.00000   0.00000   0.00000
Generated with MDTraj, t= 10.0
 48
    1UNL     C1    1  -0.234   0.342   0.145
    1UNL     C2    2  -0.225   0.203   0.081
    1UNL     C3    3  -0.138   0.107   0.119
    1UNL     C4    4  -0.126  -0.021   0.054
    1UNL     O1    5  -0.020  -0.111   0.079
    1UNL     C5    6   0.104  -0.048   0.044
    1UNL     O2    7   0.194  -0.134  -0.024
    1UNL     C6    8   0.327  -0.077  -0.059
    1UNL     C7    9   0.310   0.041  -0.152
    1UNL     O3   10   0.262   0.005  -0.272
    1UNL     C8   11   0.389  -0.029   0.076
    1UNL     O4   12   0.505  -0.107   0.112
    1UNL     C9   13   0.303  -0.050   0.200
    1UNL     O5   14   0.356   0.015   0.322
    1UNL    C10   15   0.165   0.012   0.174
    1UNL     O6   16   0.093  -0.028   0.292
    1UNL    C11   17  -0.213  -0.049  -0.051
    1UNL    C12   18  -0.208  -0.183  -0.121
    1UNL    C13   19  -0.342  -0.253  -0.130
    1UNL    C14   20  -0.143  -0.172  -0.258
    1UNL    C15   21  -0.305   0.049  -0.088
    1UNL     O7   22  -0.379   0.025  -0.204
    1UNL    C16   23  -0.309   0.178  -0.023
    1UNL     O8   24  -0.396   0.269  -0.078
    1UNL     H1   25  -0.159   0.364   0.223
    1UNL     H2   26  -0.236   0.421   0.065
    1UNL     H3   27  -0.329   0.353   0.188
    1UNL     H4   28  -0.079   0.120   0.204
    1UNL     H5   29   0.076   0.031  -0.025
    1UNL     H6   30   0.376  -0.166  -0.105
    1UNL     H7   31   0.241   0.119  -0.108
    1UNL     H8   32   0.404   0.083  -0.178
    1UNL     H9   33   0.200  -0.078  -0.268
    1UNL    H10   34   0.431   0.077   0.062
    1UNL    H11   35   0.573  -0.100   0.043
    1UNL    H12   36   0.303  -0.160   0.223
    1UNL    H13   37   0.279   0.041   0.380
    1UNL    H14   38   0.165   0.126   0.165
    1UNL    H15   39   0.048  -0.116   0.271
    1UNL    H16   40  -0.141  -0.243  -0.056
    1UNL    H17   41  -0.429  -0.193  -0.154
    1UNL    H18   42  -0.372  -0.290  -0.027
    1UNL    H19   43  -0.326  -0.337  -0.196
    1UNL    H20   44  -0.050  -0.111  -0.241
    1UNL    H21   45  -0.202  -0.104  -0.327
    1UNL    H22   46  -0.104  -0.266  -0.307
    1UNL    H23   47  -0.447   0.088  -0.214
    1UNL    H24   48  -0.396   0.267  -0.171
   0.00000   0.00000   0.00000   0.00000   0.00000   0.00000   0.00000   0.00000   0.00000
Generated with MDTraj, t= 11.0
 48
    1UNL     C1    1  -0.258   0.323   0.166
    1UNL     C2    2  -0.243   0.199   0.083
    1UNL     C3    3  -0.150   0.106   0.118
    1UNL     C4    4  -0.127  -0.013   0.054
    1UNL     O1    5  -0.024  -0.100   0.087
    1UNL     C5    6   0.103  -0.043   0.055
    1UNL     O2    7   0.185  -0.149  -0.007
    1UNL     C6    8   0.316  -0.093  -0.046
    1UNL     C7    9   0.310   0.016  -0.153
    1UNL     O3   10   0.225  -0.032  -0.250
    1UNL     C8   11   0.396  -0.048   0.077
    1UNL     O4   12   0.512  -0.136   0.099
    1UNL     C9   13   0.316  -0.036   0.204
    1UNL     O5   14   0.386   0.053   0.300
    1UNL    C10   15   0.174   0.016   0.182
    1UNL     O6   16   0.102  -0.005   0.306
    1UNL    C11   17  -0.212  -0.047  -0.054
    1UNL    C12   18  -0.183  -0.169  -0.141
    1UNL    C13   19  -0.312  -0.256  -0.178
    1UNL    C14   20  -0.112  -0.127  -0.275
    1UNL    C15   21  -0.305   0.046  -0.096
    1UNL     O7   22  -0.396   0.030  -0.196
    1UNL    C16   23  -0.325   0.174  -0.025
    1UNL     O8   24  -0.407   0.272  -0.087
    1UNL     H1   25  -0.166   0.350   0.219
    1UNL     H2   26  -0.301   0.407   0.105
    1UNL     H3   27  -0.331   0.301   0.240
    1UNL     H4   28  -0.096   0.112   0.215
    1UNL     H5   29   0.076   0.031  -0.020
    1UNL     H6   30   0.361  -0.185  -0.088
    1UNL     H7   31   0.257   0.109  -0.115
    1UNL     H8   32   0.406   0.033  -0.196
    1UNL     H9   33   0.191  -0.112  -0.221
    1UNL    H10   34   0.439   0.052   0.051
    1UNL    H11   35   0.568  -0.139   0.018
    1UNL    H12   36   0.309  -0.135   0.253
    1UNL    H13   37   0.318   0.095   0.364
    1UNL    H14   38   0.161   0.129   0.164
    1UNL    H15   39   0.043  -0.079   0.288
    1UNL    H16   40  -0.111  -0.236  -0.087
    1UNL    H17   41  -0.383  -0.204  -0.239
    1UNL    H18   42  -0.363  -0.280  -0.079
    1UNL    H19   43  -0.290  -0.351  -0.221
    1UNL    H20   44  -0.029  -0.059  -0.258
    1UNL    H21   45  -0.186  -0.071  -0.339
    1UNL    H22   46  -0.072  -0.223  -0.331
    1UNL    H23   47  -0.462   0.108  -0.179
    1UNL    H24   48  -0.421   0.342  -0.024
   0.00000   0.00000   0.00000   0.00000   0.00000   0.00000   0.00000   0.00000   0.00000
Generated with MDTraj, t= 12.0
 48
    1UNL     C1    1  -0.285   0.319   0.165
    1UNL     C2    2  -0.262   0.189   0.103
    1UNL     C3    3  -0.147   0.110   0.129
    1UNL     C4    4  -0.119  -0.002   0.054
    1UNL     O1    5  -0.018  -0.100   0.086
    1UNL     C5    6   0.111  -0.052   0.049
    1UNL     O2    7   0.201  -0.164   0.007
    1UNL     C6    8   0.327  -0.119  -0.034
    1UNL     C7    9   0.302  -0.027  -0.155
    1UNL     O3   10   0.185  -0.075  -0.229
    1UNL     C8   11   0.410  -0.057   0.080
    1UNL     O4   12   0.515  -0.144   0.102
    1UNL     C9   13   0.320  -0.035   0.200
    1UNL     O5   14   0.387   0.052   0.298
    1UNL    C10   15   0.179   0.023   0.167
    1UNL     O6   16   0.090   0.042   0.279
    1UNL    C11   17  -0.193  -0.022  -0.064
    1UNL    C12   18  -0.164  -0.135  -0.155
    1UNL    C13   19  -0.276  -0.231  -0.168
    1UNL    C14   20  -0.120  -0.080  -0.294
    1UNL    C15   21  -0.299   0.063  -0.106
    1UNL     O7   22  -0.372   0.041  -0.224
    1UNL    C16   23  -0.340   0.163  -0.017
    1UNL     O8   24  -0.453   0.229  -0.050
    1UNL     H1   25  -0.202   0.350   0.227
    1UNL     H2   26  -0.314   0.400   0.096
    1UNL     H3   27  -0.369   0.317   0.236
    1UNL     H4   28  -0.094   0.141   0.214
    1UNL     H5   29   0.088   0.014  -0.034
    1UNL     H6   30   0.375  -0.210  -0.073
    1UNL     H7   31   0.272   0.075  -0.120
    1UNL     H8   32   0.393  -0.029  -0.211
    1UNL     H9   33   0.172  -0.172  -0.185
    1UNL    H10   34   0.449   0.043   0.053
    1UNL    H11   35   0.574  -0.160   0.024
    1UNL    H12   36   0.315  -0.125   0.260
    1UNL    H13   37   0.314   0.092   0.353
    1UNL    H14   38   0.212   0.132   0.137
    1UNL    H15   39   0.037  -0.042   0.284
    1UNL    H16   40  -0.075  -0.185  -0.103
    1UNL    H17   41  -0.352  -0.183  -0.226
    1UNL    H18   42  -0.310  -0.262  -0.064
    1UNL    H19   43  -0.260  -0.329  -0.209
    1UNL    H20   44  -0.033  -0.017  -0.275
    1UNL    H21   45  -0.198  -0.009  -0.334
    1UNL    H22   46  -0.094  -0.165  -0.370
    1UNL    H23   47  -0.433   0.114  -0.227
    1UNL    H24   48  -0.470   0.309   0.009
   0.00000   0.00000   0.00000   0.00000   0.00000   0.00000   0.00000   0.00000   0.00000
Generated with MDTraj, t= 13.0
 48
    1UNL     C1    1  -0.320   0.292   0.204
    1UNL     C2    2  -0.269   0.189   0.109
    1UNL     C3    3  -0.159   0.107   0.137
    1UNL     C4    4  -0.122   0.014   0.044
    1UNL     O1    5  -0.027  -0.082   0.088
    1UNL     C5    6   0.105  -0.050   0.049
    1UNL     O2    7   0.186  -0.168   0.008
    1UNL     C6    8   0.316  -0.140  -0.036
    1UNL     C7    9   0.320  -0.075  -0.175
    1UNL     O3   10   0.206  -0.117  -0.250
    1UNL     C8   11   0.400  -0.066   0.082
    1UNL     O4   12   0.511  -0.144   0.115
    1UNL     C9   13   0.304  -0.032   0.204
    1UNL     O5   14   0.387   0.057   0.285
    1UNL    C10   15   0.176   0.038   0.154
    1UNL     O6   16   0.095   0.081   0.262
    1UNL    C11   17  -0.185  -0.005  -0.074
    1UNL    C12   18  -0.135  -0.116  -0.162
    1UNL    C13   19  -0.226  -0.235  -0.156
    1UNL    C14   20  -0.109  -0.063  -0.304
    1UNL    C15   21  -0.305   0.060  -0.100
    1UNL     O7   22  -0.371   0.052  -0.219
    1UNL    C16   23  -0.338   0.167  -0.004
    1UNL     O8   24  -0.456   0.238  -0.037
    1UNL     H1   25  -0.273   0.284   0.302
    1UNL     H2   26  -0.319   0.392   0.166
    1UNL     H3   27  -0.429   0.269   0.227
    1UNL     H4   28  -0.120   0.106   0.239
    1UNL     H5   29   0.085   0.011  -0.041
    1UNL     H6   30   0.362  -0.236  -0.055
    1UNL     H7   31   0.311   0.033  -0.150
    1UNL     H8   32   0.409  -0.102  -0.229
    1UNL     H9   33   0.184  -0.193  -0.207
    1UNL    H10   34   0.440   0.025   0.039
    1UNL    H11   35   0.562  -0.173   0.035
    1UNL    H12   36   0.269  -0.115   0.262
    1UNL    H13   37   0.320   0.098   0.339
    1UNL    H14   38   0.219   0.137   0.107
    1UNL    H15   39   0.044   0.001   0.289
    1UNL    H16   40  -0.037  -0.147  -0.112
    1UNL    H17   41  -0.324  -0.195  -0.173
    1UNL    H18   42  -0.209  -0.302  -0.066
    1UNL    H19   43  -0.216  -0.311  -0.230
    1UNL    H20   44  -0.057   0.038  -0.310
    1UNL    H21   45  -0.211  -0.042  -0.349
    1UNL    H22   46  -0.060  -0.141  -0.366
    1UNL    H23   47  -0.445   0.120  -0.208
    1UNL    H24   48  -0.515   0.237   0.046
   0.00000   0.00000   0.00000   0.00000   0.00000   0.00000   0.00000   0.00000   0.00000
Generated with MDTraj, t= 14.0
 48
    1UNL     C1    1  -0.372   0.272   0.217
    1UNL     C2    2  -0.308   0.173   0.127
    1UNL     C3    3  -0.194   0.097   0.156
    1UNL     C4    4  -0.132   0.007   0.066
    1UNL     O1    5  -0.023  -0.078   0.104
    1UNL     C5    6   0.104  -0.039   0.054
    1UNL     O2    7   0.181  -0.154   0.002
    1UNL     C6    8   0.318  -0.147  -0.039
    1UNL     C7    9   0.324  -0.084  -0.181
    1UNL     O3   10   0.261  -0.174  -0.267
    1UNL     C8   11   0.409  -0.076   0.071
    1UNL     O4   12   0.507  -0.155   0.127
    1UNL     C9   13   0.318  -0.026   0.190
    1UNL     O5   14   0.393   0.067   0.267
    1UNL    C10   15   0.193   0.047   0.146
    1UNL     O6   16   0.119   0.089   0.261
    1UNL    C11   17  -0.197  -0.014  -0.063
    1UNL    C12   18  -0.141  -0.107  -0.164
    1UNL    C13   19  -0.226  -0.228  -0.166
    1UNL    C14   20  -0.109  -0.042  -0.299
    1UNL    C15   21  -0.298   0.074  -0.092
    1UNL     O7   22  -0.365   0.060  -0.216
    1UNL    C16   23  -0.349   0.173  -0.006
    1UNL     O8   24  -0.456   0.254  -0.054
    1UNL     H1   25  -0.300   0.297   0.295
    1UNL     H2   26  -0.412   0.357   0.166
    1UNL     H3   27  -0.460   0.223   0.268
    1UNL     H4   28  -0.144   0.117   0.251
    1UNL     H5   29   0.073   0.024  -0.032
    1UNL     H6   30   0.348  -0.251  -0.040
    1UNL     H7   31   0.259   0.007  -0.188
    1UNL     H8   32   0.425  -0.069  -0.216
    1UNL     H9   33   0.169  -0.206  -0.232
    1UNL    H10   34   0.466   0.007   0.038
    1UNL    H11   35   0.555  -0.203   0.056
    1UNL    H12   36   0.304  -0.109   0.255
    1UNL    H13   37   0.331   0.110   0.335
    1UNL    H14   38   0.228   0.143   0.087
    1UNL    H15   39   0.079   0.008   0.292
    1UNL    H16   40  -0.044  -0.146  -0.119
    1UNL    H17   41  -0.319  -0.193  -0.208
    1UNL    H18   42  -0.226  -0.267  -0.061
    1UNL    H19   43  -0.188  -0.313  -0.218
    1UNL    H20   44  -0.046   0.057  -0.302
    1UNL    H21   45  -0.208  -0.003  -0.340
    1UNL    H22   46  -0.074  -0.113  -0.370
    1UNL    H23   47  -0.435   0.128  -0.205
    1UNL    H24   48  -0.433   0.353  -0.036
   0.00000   0.00000   0.00000   0.00000   0.00000   0.00000   0.00000   0.00000   0.00000
Generated with MDTraj, t= 15.0
 48
    1UNL     C1    1  -0.376   0.253   0.227
    1UNL     C2    2  -0.310   0.170   0.131
    1UNL     C3    3  -0.193   0.108   0.165
    1UNL     C4    4  -0.128   0.018   0.072
    1UNL     O1    5  -0.022  -0.066   0.116
    1UNL     C5    6   0.099  -0.039   0.046
    1UNL     O2    7   0.167  -0.162   0.004
    1UNL     C6    8   0.300  -0.145  -0.037
    1UNL     C7    9   0.306  -0.092  -0.177
    1UNL     O3   10   0.278  -0.190  -0.271
    1UNL     C8   11   0.401  -0.076   0.063
    1UNL     O4   12   0.510  -0.156   0.118
    1UNL     C9   13   0.315  -0.018   0.184
    1UNL     O5   14   0.388   0.067   0.261
    1UNL    C10   15   0.190   0.056   0.135
    1UNL     O6   16   0.128   0.103   0.259
    1UNL    C11   17  -0.181  -0.003  -0.056
    1UNL    C12   18  -0.137  -0.111  -0.153
    1UNL    C13   19  -0.253  -0.205  -0.184
    1UNL    C14   20  -0.069  -0.057  -0.284
    1UNL    C15   21  -0.292   0.072  -0.091
    1UNL     O7   22  -0.335   0.074  -0.223
    1UNL    C16   23  -0.353   0.167  -0.004
    1UNL     O8   24  -0.467   0.238  -0.052
    1UNL     H1   25  -0.303   0.271   0.308
    1UNL     H2   26  -0.415   0.348   0.187
    1UNL     H3   27  -0.463   0.205   0.273
    1UNL     H4   28  -0.166   0.096   0.264
    1UNL     H5   29   0.069   0.014  -0.048
    1UNL     H6   30   0.331  -0.251  -0.036
    1UNL     H7   31   0.236  -0.008  -0.192
    1UNL     H8   32   0.409  -0.064  -0.198
    1UNL     H9   33   0.176  -0.226  -0.281
    1UNL    H10   34   0.446   0.005   0.015
    1UNL    H11   35   0.551  -0.206   0.045
    1UNL    H12   36   0.277  -0.100   0.242
    1UNL    H13   37   0.325   0.111   0.327
    1UNL    H14   38   0.206   0.158   0.078
    1UNL    H15   39   0.070   0.028   0.296
    1UNL    H16   40  -0.064  -0.175  -0.092
    1UNL    H17   41  -0.308  -0.158  -0.264
    1UNL    H18   42  -0.303  -0.236  -0.093
    1UNL    H19   43  -0.206  -0.295  -0.221
    1UNL    H20   44   0.021   0.017  -0.283
    1UNL    H21   45  -0.148   0.006  -0.335
    1UNL    H22   46  -0.053  -0.138  -0.352
    1UNL    H23   47  -0.411   0.135  -0.220
    1UNL    H24   48  -0.533   0.248   0.022
   0.00000   0.00000   0.00000   0.00000   0.00000   0.00000   0.00000   0.00000   0.00000
Generated with MDTraj, t= 16.0
 48
    1UNL     C1    1  -0.360   0.268   0.232
    1UNL     C2    2  -0.309   0.172   0.129
    1UNL     C3    3  -0.194   0.103   0.164
    1UNL     C4    4  -0.132   0.011   0.072
    1UNL     O1    5  -0.020  -0.070   0.115
    1UNL     C5    6   0.098  -0.036   0.049
    1UNL     O2    7   0.164  -0.163   0.006
    1UNL     C6    8   0.306  -0.161  -0.030
    1UNL     C7    9   0.314  -0.106  -0.172
    1UNL     O3   10   0.218  -0.161  -0.261
    1UNL     C8   11   0.399  -0.077   0.061
    1UNL     O4   12   0.510  -0.151   0.108
    1UNL     C9   13   0.312  -0.017   0.186
    1UNL     O5   14   0.385   0.067   0.263
    1UNL    C10   15   0.188   0.058   0.134
    1UNL     O6   16   0.118   0.109   0.240
    1UNL    C11   17  -0.187  -0.008  -0.053
    1UNL    C12   18  -0.125  -0.111  -0.146
    1UNL    C13   19  -0.233  -0.195  -0.195
    1UNL    C14   20  -0.052  -0.057  -0.270
    1UNL    C15   21  -0.289   0.073  -0.098
    1UNL     O7   22  -0.329   0.075  -0.232
    1UNL    C16   23  -0.358   0.153   0.003
    1UNL     O8   24  -0.468   0.219  -0.051
    1UNL     H1   25  -0.290   0.264   0.317
    1UNL     H2   26  -0.377   0.374   0.198
    1UNL     H3   27  -0.453   0.238   0.271
    1UNL     H4   28  -0.162   0.101   0.274
    1UNL     H5   29   0.075   0.019  -0.045
    1UNL     H6   30   0.341  -0.266  -0.024
    1UNL     H7   31   0.289   0.002  -0.159
    1UNL     H8   32   0.417  -0.102  -0.213
    1UNL     H9   33   0.237  -0.259  -0.263
    1UNL    H10   34   0.435   0.007   0.010
    1UNL    H11   35   0.560  -0.189   0.032
    1UNL    H12   36   0.289  -0.106   0.246
    1UNL    H13   37   0.324   0.104   0.326
    1UNL    H14   38   0.234   0.148   0.076
    1UNL    H15   39   0.060   0.040   0.274
    1UNL    H16   40  -0.050  -0.171  -0.080
    1UNL    H17   41  -0.313  -0.133  -0.233
    1UNL    H18   42  -0.265  -0.259  -0.117
    1UNL    H19   43  -0.202  -0.250  -0.285
    1UNL    H20   44   0.016   0.028  -0.260
    1UNL    H21   45  -0.127  -0.023  -0.349
    1UNL    H22   46  -0.001  -0.146  -0.315
    1UNL    H23   47  -0.406   0.142  -0.241
    1UNL    H24   48  -0.500   0.286   0.009
   0.00000   0.00000   0.00000   0.00000   0.00000   0.00000   0.00000   0.00000   0.00000
Generated with MDTraj, t= 17.0
 48
    1UNL     C1    1  -0.359   0.265   0.217
    1UNL     C2    2  -0.303   0.169   0.122
    1UNL     C3    3  -0.188   0.090   0.155
    1UNL     C4    4  -0.136  -0.000   0.066
    1UNL     O1    5  -0.026  -0.084   0.108
    1UNL     C5    6   0.104  -0.050   0.055
    1UNL     O2    7   0.184  -0.165   0.025
    1UNL     C6    8   0.313  -0.137  -0.032
    1UNL     C7    9   0.289  -0.070  -0.170
    1UNL     O3   10   0.192  -0.152  -0.238
    1UNL     C8   11   0.412  -0.077   0.067
    1UNL     O4   12   0.501  -0.175   0.108
    1UNL     C9   13   0.330  -0.016   0.195
    1UNL     O5   14   0.406   0.071   0.268
    1UNL    C10   15   0.193   0.051   0.141
    1UNL     O6   16   0.119   0.105   0.246
    1UNL    C11   17  -0.191  -0.011  -0.065
    1UNL    C12   18  -0.128  -0.099  -0.162
    1UNL    C13   19  -0.216  -0.219  -0.184
    1UNL    C14   20  -0.090  -0.018  -0.290
    1UNL    C15   21  -0.300   0.065  -0.092
    1UNL     O7   22  -0.357   0.041  -0.214
    1UNL    C16   23  -0.348   0.166  -0.013
    1UNL     O8   24  -0.442   0.248  -0.074
    1UNL     H1   25  -0.308   0.247   0.313
    1UNL     H2   26  -0.347   0.373   0.183
    1UNL     H3   27  -0.464   0.251   0.229
    1UNL     H4   28  -0.158   0.081   0.254
    1UNL     H5   29   0.088  -0.004  -0.045
    1UNL     H6   30   0.359  -0.234  -0.064
    1UNL     H7   31   0.267   0.039  -0.174
    1UNL     H8   32   0.386  -0.074  -0.225
    1UNL     H9   33   0.192  -0.232  -0.193
    1UNL    H10   34   0.457   0.009   0.025
    1UNL    H11   35   0.566  -0.196   0.037
    1UNL    H12   36   0.299  -0.103   0.258
    1UNL    H13   37   0.348   0.090   0.349
    1UNL    H14   38   0.224   0.147   0.085
    1UNL    H15   39   0.071   0.032   0.298
    1UNL    H16   40  -0.028  -0.133  -0.116
    1UNL    H17   41  -0.312  -0.192  -0.226
    1UNL    H18   42  -0.233  -0.267  -0.094
    1UNL    H19   43  -0.183  -0.283  -0.267
    1UNL    H20   44  -0.013   0.051  -0.275
    1UNL    H21   45  -0.173   0.037  -0.339
    1UNL    H22   46  -0.053  -0.104  -0.358
    1UNL    H23   47  -0.420   0.109  -0.226
    1UNL    H24   48  -0.469   0.314  -0.012
   0.00000   0.00000   0.00000   0.00000   0.00000   0.00000   0.00000   0.00000   0.00000
Generated with MDTraj, t= 18.0
 48
    1UNL     C1    1  -0.338   0.290   0.212
    1UNL     C2    2  -0.288   0.189   0.112
    1UNL     C3    3  -0.177   0.112   0.144
    1UNL     C4    4  -0.129   0.003   0.063
    1UNL     O1    5  -0.030  -0.089   0.110
    1UNL     C5    6   0.099  -0.059   0.060
    1UNL     O2    7   0.171  -0.165   0.018
    1UNL     C6    8   0.303  -0.139  -0.035
    1UNL     C7    9   0.313  -0.076  -0.173
    1UNL     O3   10   0.203  -0.096  -0.254
    1UNL     C8   11   0.396  -0.076   0.070
    1UNL     O4   12   0.498  -0.169   0.111
    1UNL     C9   13   0.319  -0.017   0.200
    1UNL     O5   14   0.404   0.085   0.250
    1UNL    C10   15   0.182   0.037   0.157
    1UNL     O6   16   0.118   0.074   0.277
    1UNL    C11   17  -0.185  -0.018  -0.065
    1UNL    C12   18  -0.129  -0.123  -0.162
    1UNL    C13   19  -0.229  -0.239  -0.176
    1UNL    C14   20  -0.092  -0.048  -0.297
    1UNL    C15   21  -0.295   0.065  -0.098
    1UNL     O7   22  -0.346   0.056  -0.221
    1UNL    C16   23  -0.346   0.162  -0.010
    1UNL     O8   24  -0.461   0.230  -0.057
    1UNL     H1   25  -0.307   0.259   0.312
    1UNL     H2   26  -0.309   0.395   0.190
    1UNL     H3   27  -0.448   0.294   0.213
    1UNL     H4   28  -0.128   0.135   0.238
    1UNL     H5   29   0.075  -0.006  -0.037
    1UNL     H6   30   0.350  -0.240  -0.048
    1UNL     H7   31   0.316   0.030  -0.152
    1UNL     H8   32   0.404  -0.091  -0.238
    1UNL     H9   33   0.169  -0.187  -0.242
    1UNL    H10   34   0.453   0.009   0.034
    1UNL    H11   35   0.564  -0.180   0.039
    1UNL    H12   36   0.323  -0.110   0.267
    1UNL    H13   37   0.385   0.116   0.342
    1UNL    H14   38   0.197   0.137   0.104
    1UNL    H15   39   0.091  -0.004   0.325
    1UNL    H16   40  -0.030  -0.158  -0.115
    1UNL    H17   41  -0.307  -0.224  -0.251
    1UNL    H18   42  -0.271  -0.259  -0.083
    1UNL    H19   43  -0.185  -0.325  -0.228
    1UNL    H20   44  -0.012   0.021  -0.283
    1UNL    H21   45  -0.174   0.006  -0.344
    1UNL    H22   46  -0.059  -0.127  -0.375
    1UNL    H23   47  -0.436   0.110  -0.220
    1UNL    H24   48  -0.491   0.295   0.003
   0.00000   0.00000   0.00000   0.00000   0.00000   0.00000   0.00000   0.00000   0.00000
Generated with MDTraj, t= 19.0
 48
    1UNL     C1    1  -0.326   0.308   0.194
    1UNL     C2    2  -0.284   0.189   0.113
    1UNL     C3    3  -0.173   0.108   0.153
    1UNL     C4    4  -0.120   0.009   0.063
    1UNL     O1    5  -0.020  -0.087   0.100
    1UNL     C5    6   0.110  -0.052   0.043
    1UNL     O2    7   0.185  -0.158  -0.002
    1UNL     C6    8   0.322  -0.123  -0.047
    1UNL     C7    9   0.297  -0.027  -0.165
    1UNL     O3   10   0.211  -0.091  -0.254
    1UNL     C8   11   0.410  -0.063   0.065
    1UNL     O4   12   0.491  -0.165   0.123
    1UNL     C9   13   0.323  -0.021   0.190
    1UNL     O5   14   0.393   0.065   0.284
    1UNL    C10   15   0.188   0.032   0.153
    1UNL     O6   16   0.112   0.043   0.273
    1UNL    C11   17  -0.183  -0.012  -0.060
    1UNL    C12   18  -0.149  -0.134  -0.147
    1UNL    C13   19  -0.272  -0.230  -0.162
    1UNL    C14   20  -0.093  -0.104  -0.287
    1UNL    C15   21  -0.296   0.061  -0.103
    1UNL     O7   22  -0.359   0.047  -0.226
    1UNL    C16   23  -0.343   0.166  -0.013
    1UNL     O8   24  -0.451   0.239  -0.059
    1UNL     H1   25  -0.259   0.346   0.271
    1UNL     H2   26  -0.360   0.386   0.127
    1UNL     H3   27  -0.424   0.285   0.248
    1UNL     H4   28  -0.110   0.128   0.243
    1UNL     H5   29   0.076   0.003  -0.050
    1UNL     H6   30   0.378  -0.214  -0.080
    1UNL     H7   31   0.257   0.070  -0.148
    1UNL     H8   32   0.387  -0.001  -0.225
    1UNL     H9   33   0.158  -0.163  -0.200
    1UNL    H10   34   0.468   0.027   0.039
    1UNL    H11   35   0.559  -0.179   0.054
    1UNL    H12   36   0.303  -0.123   0.239
    1UNL    H13   37   0.338   0.064   0.363
    1UNL    H14   38   0.201   0.138   0.120
    1UNL    H15   39   0.077  -0.044   0.300
    1UNL    H16   40  -0.065  -0.187  -0.085
    1UNL    H17   41  -0.372  -0.197  -0.181
    1UNL    H18   42  -0.269  -0.289  -0.072
    1UNL    H19   43  -0.244  -0.286  -0.251
    1UNL    H20   44  -0.027  -0.014  -0.284
    1UNL    H21   45  -0.164  -0.077  -0.362
    1UNL    H22   46  -0.038  -0.189  -0.335
    1UNL    H23   47  -0.409   0.123  -0.247
    1UNL    H24   48  -0.490   0.288   0.014
   0.00000   0.00000   0.00000   0.00000   0.00000   0.00000   0.00000   0.00000   0.00000
Generated with MDTraj, t= 20.0
 48
    1UNL     C1    1  -0.286   0.305   0.189
    1UNL     C2    2  -0.257   0.187   0.099
    1UNL     C3    3  -0.156   0.103   0.128
    1UNL     C4    4  -0.128  -0.009   0.056
    1UNL     O1    5  -0.022  -0.088   0.098
    1UNL     C5    6   0.106  -0.044   0.040
    1UNL     O2    7   0.178  -0.149  -0.019
    1UNL     C6    8   0.319  -0.116  -0.045
    1UNL     C7    9   0.324  -0.009  -0.154
    1UNL     O3   10   0.247  -0.063  -0.259
    1UNL     C8   11   0.395  -0.062   0.077
    1UNL     O4   12   0.512  -0.134   0.107
    1UNL     C9   13   0.309  -0.033   0.204
    1UNL     O5   14   0.386   0.040   0.310
    1UNL    C10   15   0.182   0.033   0.161
    1UNL     O6   16   0.115   0.060   0.285
    1UNL    C11   17  -0.210  -0.037  -0.060
    1UNL    C12   18  -0.172  -0.156  -0.145
    1UNL    C13   19  -0.299  -0.250  -0.159
    1UNL    C14   20  -0.139  -0.116  -0.290
    1UNL    C15   21  -0.310   0.052  -0.092
    1UNL     O7   22  -0.379   0.032  -0.212
    1UNL    C16   23  -0.332   0.167  -0.020
    1UNL     O8   24  -0.420   0.261  -0.071
    1UNL     H1   25  -0.202   0.331   0.255
    1UNL     H2   26  -0.325   0.385   0.131
    1UNL     H3   27  -0.375   0.279   0.256
    1UNL     H4   28  -0.105   0.117   0.215
    1UNL     H5   29   0.073   0.027  -0.043
    1UNL     H6   30   0.372  -0.203  -0.085
    1UNL     H7   31   0.294   0.089  -0.124
    1UNL     H8   32   0.425   0.013  -0.193
    1UNL     H9   33   0.176  -0.106  -0.218
    1UNL    H10   34   0.431   0.044   0.065
    1UNL    H11   35   0.564  -0.139   0.024
    1UNL    H12   36   0.288  -0.139   0.240
    1UNL    H13   37   0.318   0.051   0.380
    1UNL    H14   38   0.220   0.130   0.125
    1UNL    H15   39   0.058  -0.021   0.307
    1UNL    H16   40  -0.083  -0.212  -0.095
    1UNL    H17   41  -0.376  -0.220  -0.224
    1UNL    H18   42  -0.340  -0.255  -0.058
    1UNL    H19   43  -0.260  -0.344  -0.193
    1UNL    H20   44  -0.056  -0.036  -0.284
    1UNL    H21   45  -0.222  -0.067  -0.339
    1UNL    H22   46  -0.112  -0.200  -0.347
    1UNL    H23   47  -0.464   0.088  -0.217
    1UNL    H24   48  -0.405   0.352  -0.037
   0.00000   0.00000   0.00000   0.00000   0.00000   0.00000   0.00000   0.00000   0.00000
Generated with MDTraj, t= 21.0
 48
    1UNL     C1    1  -0.248   0.329   0.161
    1UNL     C2    2  -0.244   0.199   0.087
    1UNL     C3    3  -0.131   0.115   0.105
    1UNL     C4    4  -0.115  -0.008   0.042
    1UNL     O1    5  -0.011  -0.098   0.066
    1UNL     C5    6   0.113  -0.039   0.028
    1UNL     O2    7   0.197  -0.135  -0.028
    1UNL     C6    8   0.330  -0.092  -0.045
    1UNL     C7    9   0.333   0.009  -0.153
    1UNL     O3   10   0.266  -0.042  -0.263
    1UNL     C8   11   0.396  -0.038   0.085
    1UNL     O4   12   0.506  -0.120   0.111
    1UNL     C9   13   0.300  -0.057   0.206
    1UNL     O5   14   0.346   0.014   0.324
    1UNL    C10   15   0.179   0.015   0.161
    1UNL     O6   16   0.088   0.017   0.271
    1UNL    C11   17  -0.211  -0.040  -0.050
    1UNL    C12   18  -0.186  -0.167  -0.130
    1UNL    C13   19  -0.308  -0.257  -0.115
    1UNL    C14   20  -0.153  -0.126  -0.273
    1UNL    C15   21  -0.312   0.053  -0.090
    1UNL     O7   22  -0.394   0.021  -0.192
    1UNL    C16   23  -0.334   0.171  -0.018
    1UNL     O8   24  -0.428   0.261  -0.068
    1UNL     H1   25  -0.215   0.319   0.267
    1UNL     H2   26  -0.198   0.405   0.101
    1UNL     H3   27  -0.353   0.362   0.163
    1UNL     H4   28  -0.057   0.132   0.188
    1UNL     H5   29   0.087   0.044  -0.045
    1UNL     H6   30   0.378  -0.177  -0.092
    1UNL     H7   31   0.291   0.097  -0.110
    1UNL     H8   32   0.433   0.050  -0.179
    1UNL     H9   33   0.191  -0.112  -0.229
    1UNL    H10   34   0.421   0.073   0.086
    1UNL    H11   35   0.559  -0.125   0.028
    1UNL    H12   36   0.282  -0.168   0.214
    1UNL    H13   37   0.268   0.019   0.387
    1UNL    H14   38   0.201   0.120   0.148
    1UNL    H15   39   0.037  -0.064   0.270
    1UNL    H16   40  -0.093  -0.223  -0.084
    1UNL    H17   41  -0.393  -0.201  -0.147
    1UNL    H18   42  -0.330  -0.279  -0.008
    1UNL    H19   43  -0.300  -0.348  -0.168
    1UNL    H20   44  -0.054  -0.071  -0.259
    1UNL    H21   45  -0.223  -0.048  -0.308
    1UNL    H22   46  -0.151  -0.210  -0.335
    1UNL    H23   47  -0.433   0.100  -0.233
    1UNL    H24   48  -0.458   0.319   0.009
   0.00000   0.00000   0.00000   0.00000   0.00000   0.00000   0.00000   0.00000   0.00000
Generated with MDTraj, t= 22.0
 48
    1UNL     C1    1  -0.223   0.341   0.119
    1UNL     C2    2  -0.233   0.199   0.064
    1UNL     C3    3  -0.123   0.116   0.090
    1UNL     C4    4  -0.114  -0.004   0.021
    1UNL     O1    5  -0.013  -0.096   0.047
    1UNL     C5    6   0.119  -0.040   0.038
    1UNL     O2    7   0.211  -0.130  -0.028
    1UNL     C6    8   0.343  -0.078  -0.040
    1UNL     C7    9   0.352   0.037  -0.148
    1UNL     O3   10   0.284  -0.009  -0.256
    1UNL     C8   11   0.404  -0.043   0.100
    1UNL     O4   12   0.522  -0.114   0.117
    1UNL     C9   13   0.306  -0.058   0.217
    1UNL     O5   14   0.365  -0.006   0.334
    1UNL    C10   15   0.177   0.011   0.179
    1UNL     O6   16   0.088  -0.015   0.290
    1UNL    C11   17  -0.218  -0.034  -0.069
    1UNL    C12   18  -0.217  -0.170  -0.143
    1UNL    C13   19  -0.341  -0.255  -0.099
    1UNL    C14   20  -0.177  -0.171  -0.290
    1UNL    C15   21  -0.334   0.045  -0.093
    1UNL     O7   22  -0.435   0.025  -0.182
    1UNL    C16   23  -0.338   0.166  -0.021
    1UNL     O8   24  -0.439   0.265  -0.045
    1UNL     H1   25  -0.158   0.355   0.208
    1UNL     H2   26  -0.191   0.413   0.039
    1UNL     H3   27  -0.316   0.382   0.149
    1UNL     H4   28  -0.052   0.145   0.168
    1UNL     H5   29   0.113   0.049  -0.030
    1UNL     H6   30   0.398  -0.164  -0.077
    1UNL     H7   31   0.312   0.134  -0.119
    1UNL     H8   32   0.458   0.067  -0.157
    1UNL     H9   33   0.210  -0.065  -0.229
    1UNL    H10   34   0.438   0.068   0.113
    1UNL    H11   35   0.581  -0.093   0.041
    1UNL    H12   36   0.300  -0.167   0.227
    1UNL    H13   37   0.298  -0.009   0.402
    1UNL    H14   38   0.187   0.116   0.179
    1UNL    H15   39   0.052  -0.109   0.283
    1UNL    H16   40  -0.123  -0.218  -0.091
    1UNL    H17   41  -0.424  -0.190  -0.109
    1UNL    H18   42  -0.348  -0.280   0.010
    1UNL    H19   43  -0.356  -0.349  -0.147
    1UNL    H20   44  -0.090  -0.109  -0.299
    1UNL    H21   45  -0.251  -0.132  -0.364
    1UNL    H22   46  -0.161  -0.274  -0.315
    1UNL    H23   47  -0.510   0.085  -0.159
    1UNL    H24   48  -0.402   0.361  -0.044
   0.00000   0.00000   0.00000   0.00000   0.00000   0.00000   0.00000   0.00000   0.00000
Generated with MDTraj, t= 23.0
 48
    1UNL     C1    1  -0.223   0.345   0.104
    1UNL     C2    2  -0.215   0.214   0.039
    1UNL     C3    3  -0.106   0.130   0.054
    1UNL     C4    4  -0.108  -0.001   0.011
    1UNL     O1    5  -0.006  -0.100   0.042
    1UNL     C5    6   0.125  -0.043   0.035
    1UNL     O2    7   0.228  -0.122  -0.041
    1UNL     C6    8   0.359  -0.070  -0.042
    1UNL     C7    9   0.361   0.054  -0.133
    1UNL     O3   10   0.288   0.033  -0.243
    1UNL     C8   11   0.418  -0.031   0.101
    1UNL     O4   12   0.530  -0.113   0.137
    1UNL     C9   13   0.312  -0.062   0.216
    1UNL     O5   14   0.357  -0.024   0.343
    1UNL    C10   15   0.172  -0.004   0.179
    1UNL     O6   16   0.072  -0.044   0.273
    1UNL    C11   17  -0.226  -0.051  -0.053
    1UNL    C12   18  -0.232  -0.185  -0.122
    1UNL    C13   19  -0.367  -0.255  -0.086
    1UNL    C14   20  -0.235  -0.158  -0.270
    1UNL    C15   21  -0.327   0.038  -0.078
    1UNL     O7   22  -0.446   0.003  -0.155
    1UNL    C16   23  -0.322   0.171  -0.041
    1UNL     O8   24  -0.421   0.261  -0.069
    1UNL     H1   25  -0.124   0.388   0.122
    1UNL     H2   26  -0.287   0.412   0.039
    1UNL     H3   27  -0.271   0.341   0.197
    1UNL     H4   28  -0.024   0.162   0.105
    1UNL     H5   29   0.122   0.049  -0.024
    1UNL     H6   30   0.413  -0.153  -0.087
    1UNL     H7   31   0.337   0.145  -0.074
    1UNL     H8   32   0.465   0.084  -0.160
    1UNL     H9   33   0.212  -0.035  -0.227
    1UNL    H10   34   0.446   0.082   0.097
    1UNL    H11   35   0.605  -0.088   0.078
    1UNL    H12   36   0.306  -0.170   0.216
    1UNL    H13   37   0.280  -0.043   0.400
    1UNL    H14   38   0.178   0.100   0.194
    1UNL    H15   39   0.016  -0.116   0.239
    1UNL    H16   40  -0.144  -0.256  -0.103
    1UNL    H17   41  -0.441  -0.206  -0.148
    1UNL    H18   42  -0.404  -0.233   0.015
    1UNL    H19   43  -0.357  -0.363  -0.088
    1UNL    H20   44  -0.161  -0.093  -0.298
    1UNL    H21   45  -0.321  -0.095  -0.300
    1UNL    H22   46  -0.244  -0.243  -0.341
    1UNL    H23   47  -0.486   0.091  -0.185
    1UNL    H24   48  -0.440   0.320   0.013
   0.00000   0.00000   0.00000   0.00000   0.00000   0.00000   0.00000   0.00000   0.00000
Generated with MDTraj, t= 24.0
 48
    1UNL     C1    1  -0.182   0.363   0.066
    1UNL     C2    2  -0.196   0.217   0.032
    1UNL     C3    3  -0.097   0.122   0.048
    1UNL     C4    4  -0.113  -0.011   0.002
    1UNL     O1    5  -0.010  -0.101   0.021
    1UNL     C5    6   0.119  -0.037   0.023
    1UNL     O2    7   0.231  -0.109  -0.041
    1UNL     C6    8   0.358  -0.049  -0.033
    1UNL     C7    9   0.358   0.081  -0.117
    1UNL     O3   10   0.298   0.064  -0.246
    1UNL     C8   11   0.409  -0.036   0.115
    1UNL     O4   12   0.525  -0.119   0.132
    1UNL     C9   13   0.288  -0.078   0.212
    1UNL     O5   14   0.323  -0.044   0.343
    1UNL    C10   15   0.158  -0.005   0.168
    1UNL     O6   16   0.057  -0.060   0.249
    1UNL    C11   17  -0.229  -0.048  -0.062
    1UNL    C12   18  -0.228  -0.185  -0.116
    1UNL    C13   19  -0.332  -0.269  -0.040
    1UNL    C14   20  -0.241  -0.213  -0.266
    1UNL    C15   21  -0.328   0.048  -0.081
    1UNL     O7   22  -0.443   0.013  -0.150
    1UNL    C16   23  -0.311   0.180  -0.026
    1UNL     O8   24  -0.427   0.265  -0.038
    1UNL     H1   25  -0.077   0.390   0.084
    1UNL     H2   26  -0.229   0.420  -0.017
    1UNL     H3   27  -0.237   0.387   0.157
    1UNL     H4   28  -0.003   0.154   0.101
    1UNL     H5   29   0.115   0.051  -0.040
    1UNL     H6   30   0.417  -0.128  -0.082
    1UNL     H7   31   0.297   0.158  -0.061
    1UNL     H8   32   0.452   0.141  -0.113
    1UNL     H9   33   0.234  -0.012  -0.241
    1UNL    H10   34   0.434   0.073   0.140
    1UNL    H11   35   0.609  -0.087   0.092
    1UNL    H12   36   0.282  -0.184   0.213
    1UNL    H13   37   0.243  -0.056   0.403
    1UNL    H14   38   0.162   0.100   0.184
    1UNL    H15   39   0.001  -0.126   0.202
    1UNL    H16   40  -0.124  -0.228  -0.099
    1UNL    H17   41  -0.426  -0.211  -0.042
    1UNL    H18   42  -0.313  -0.294   0.060
    1UNL    H19   43  -0.325  -0.369  -0.085
    1UNL    H20   44  -0.171  -0.161  -0.327
    1UNL    H21   45  -0.332  -0.171  -0.301
    1UNL    H22   46  -0.249  -0.322  -0.292
    1UNL    H23   47  -0.507   0.081  -0.130
    1UNL    H24   48  -0.410   0.353   0.006
   0.00000   0.00000   0.00000   0.00000   0.00000   0.00000   0.00000   0.00000   0.00000
Generated with MDTraj, t= 25.0
 48
    1UNL     C1    1  -0.182   0.360   0.059
    1UNL     C2    2  -0.200   0.226   0.014
    1UNL     C3    3  -0.094   0.138   0.022
    1UNL     C4    4  -0.105  -0.001  -0.019
    1UNL     O1    5   0.000  -0.092  -0.002
    1UNL     C5    6   0.136  -0.033   0.012
    1UNL     O2    7   0.243  -0.109  -0.048
    1UNL     C6    8   0.368  -0.044  -0.026
    1UNL     C7    9   0.380   0.097  -0.094
    1UNL     O3   10   0.312   0.091  -0.224
    1UNL     C8   11   0.423  -0.045   0.123
    1UNL     O4   12   0.535  -0.128   0.139
    1UNL     C9   13   0.297  -0.091   0.208
    1UNL     O5   14   0.307  -0.069   0.344
    1UNL    C10   15   0.164  -0.010   0.165
    1UNL     O6   16   0.046  -0.053   0.236
    1UNL    C11   17  -0.226  -0.048  -0.070
    1UNL    C12   18  -0.247  -0.193  -0.113
    1UNL    C13   19  -0.334  -0.260  -0.005
    1UNL    C14   20  -0.290  -0.207  -0.259
    1UNL    C15   21  -0.336   0.037  -0.071
    1UNL     O7   22  -0.452  -0.008  -0.118
    1UNL    C16   23  -0.322   0.176  -0.035
    1UNL     O8   24  -0.435   0.256  -0.055
    1UNL     H1   25  -0.084   0.364   0.107
    1UNL     H2   26  -0.188   0.434  -0.018
    1UNL     H3   27  -0.249   0.395   0.144
    1UNL     H4   28  -0.015   0.169   0.087
    1UNL     H5   29   0.144   0.059  -0.040
    1UNL     H6   30   0.436  -0.114  -0.081
    1UNL     H7   31   0.350   0.191  -0.039
    1UNL     H8   32   0.487   0.126  -0.098
    1UNL     H9   33   0.251   0.014  -0.220
    1UNL    H10   34   0.450   0.063   0.144
    1UNL    H11   35   0.621  -0.086   0.118
    1UNL    H12   36   0.288  -0.196   0.200
    1UNL    H13   37   0.217  -0.056   0.380
    1UNL    H14   38   0.172   0.095   0.181
    1UNL    H15   39   0.000  -0.123   0.180
    1UNL    H16   40  -0.147  -0.241  -0.115
    1UNL    H17   41  -0.431  -0.207   0.008
    1UNL    H18   42  -0.290  -0.249   0.089
    1UNL    H19   43  -0.342  -0.368  -0.017
    1UNL    H20   44  -0.220  -0.155  -0.327
    1UNL    H21   45  -0.376  -0.152  -0.273
    1UNL    H22   46  -0.310  -0.311  -0.282
    1UNL    H23   47  -0.509   0.078  -0.133
    1UNL    H24   48  -0.410   0.348  -0.044
   0.00000   0.00000   0.00000   0.00000   0.00000   0.00000   0.00000   0.00000   0.00000
Generated with MDTraj, t= 26.0
 48
    1UNL     C1    1  -0.187   0.372   0.053
    1UNL     C2    2  -0.205   0.227   0.007
    1UNL     C3    3  -0.093   0.147  -0.004
    1UNL     C4    4  -0.103   0.008  -0.028
    1UNL     O1    5   0.011  -0.083  -0.030
    1UNL     C5    6   0.139  -0.032   0.008
    1UNL     O2    7   0.252  -0.092  -0.061
    1UNL     C6    8   0.382  -0.043  -0.033
    1UNL     C7    9   0.400   0.103  -0.085
    1UNL     O3   10   0.354   0.124  -0.215
    1UNL     C8   11   0.416  -0.061   0.124
    1UNL     O4   12   0.521  -0.156   0.148
    1UNL     C9   13   0.278  -0.098   0.202
    1UNL     O5   14   0.300  -0.085   0.342
    1UNL    C10   15   0.153  -0.009   0.157
    1UNL     O6   16   0.043  -0.045   0.230
    1UNL    C11   17  -0.230  -0.051  -0.051
    1UNL    C12   18  -0.242  -0.191  -0.090
    1UNL    C13   19  -0.323  -0.265   0.015
    1UNL    C14   20  -0.310  -0.202  -0.234
    1UNL    C15   21  -0.338   0.031  -0.068
    1UNL     O7   22  -0.463  -0.023  -0.107
    1UNL    C16   23  -0.330   0.170  -0.036
    1UNL     O8   24  -0.443   0.245  -0.060
    1UNL     H1   25  -0.110   0.368   0.130
    1UNL     H2   26  -0.157   0.439  -0.024
    1UNL     H3   27  -0.273   0.423   0.109
    1UNL     H4   28  -0.002   0.191   0.016
    1UNL     H5   29   0.148   0.066  -0.031
    1UNL     H6   30   0.456  -0.112  -0.084
    1UNL     H7   31   0.365   0.174  -0.003
    1UNL     H8   32   0.505   0.133  -0.083
    1UNL     H9   33   0.289   0.043  -0.240
    1UNL    H10   34   0.456   0.038   0.158
    1UNL    H11   35   0.608  -0.126   0.114
    1UNL    H12   36   0.255  -0.202   0.198
    1UNL    H13   37   0.217  -0.058   0.384
    1UNL    H14   38   0.170   0.097   0.181
    1UNL    H15   39   0.008  -0.127   0.194
    1UNL    H16   40  -0.146  -0.240  -0.101
    1UNL    H17   41  -0.430  -0.239  -0.006
    1UNL    H18   42  -0.316  -0.228   0.113
    1UNL    H19   43  -0.324  -0.375  -0.002
    1UNL    H20   44  -0.262  -0.127  -0.303
    1UNL    H21   45  -0.409  -0.168  -0.230
    1UNL    H22   46  -0.305  -0.299  -0.266
    1UNL    H23   47  -0.523   0.049  -0.098
    1UNL    H24   48  -0.415   0.325  -0.101
   0.00000   0.00000   0.00000   0.00000   0.00000   0.00000   0.00000   0.00000   0.00000
Generated with MDTraj, t= 27.0
 48
    1UNL     C1    1  -0.190   0.369   0.008
    1UNL     C2    2  -0.206   0.222   0.007
    1UNL     C3    3  -0.089   0.149   0.006
    1UNL     C4    4  -0.101   0.018  -0.032
    1UNL     O1    5   0.009  -0.072  -0.039
    1UNL     C5    6   0.136  -0.009  -0.010
    1UNL     O2    7   0.248  -0.077  -0.074
    1UNL     C6    8   0.382  -0.039  -0.029
    1UNL     C7    9   0.404   0.112  -0.077
    1UNL     O3   10   0.392   0.136  -0.211
    1UNL     C8   11   0.402  -0.073   0.125
    1UNL     O4   12   0.475  -0.191   0.145
    1UNL     C9   13   0.263  -0.107   0.191
    1UNL     O5   14   0.275  -0.099   0.331
    1UNL    C10   15   0.151  -0.003   0.149
    1UNL     O6   16   0.029  -0.023   0.221
    1UNL    C11   17  -0.222  -0.040  -0.066
    1UNL    C12   18  -0.222  -0.192  -0.086
    1UNL    C13   19  -0.298  -0.266   0.023
    1UNL    C14   20  -0.261  -0.248  -0.218
    1UNL    C15   21  -0.340   0.034  -0.054
    1UNL     O7   22  -0.461  -0.024  -0.085
    1UNL    C16   23  -0.329   0.174  -0.022
    1UNL     O8   24  -0.446   0.254  -0.027
    1UNL     H1   25  -0.154   0.390   0.110
    1UNL     H2   26  -0.123   0.398  -0.072
    1UNL     H3   27  -0.287   0.421  -0.007
    1UNL     H4   28   0.009   0.199   0.034
    1UNL     H5   29   0.139   0.084  -0.057
    1UNL     H6   30   0.457  -0.100  -0.086
    1UNL     H7   31   0.327   0.174  -0.025
    1UNL     H8   32   0.494   0.154  -0.036
    1UNL     H9   33   0.330   0.090  -0.258
    1UNL    H10   34   0.456   0.010   0.175
    1UNL    H11   35   0.542  -0.207   0.074
    1UNL    H12   36   0.238  -0.212   0.174
    1UNL    H13   37   0.192  -0.056   0.370
    1UNL    H14   38   0.177   0.100   0.182
    1UNL    H15   39  -0.009  -0.109   0.193
    1UNL    H16   40  -0.123  -0.229  -0.072
    1UNL    H17   41  -0.391  -0.212   0.055
    1UNL    H18   42  -0.246  -0.259   0.118
    1UNL    H19   43  -0.348  -0.359  -0.015
    1UNL    H20   44  -0.202  -0.210  -0.301
    1UNL    H21   45  -0.361  -0.217  -0.245
    1UNL    H22   46  -0.261  -0.351  -0.213
    1UNL    H23   47  -0.528   0.055  -0.088
    1UNL    H24   48  -0.482   0.272   0.063
   0.00000   0.00000   0.00000   0.00000   0.00000   0.00000   0.00000   0.00000   0.00000
Generated with MDTraj, t= 28.0
 48
    1UNL     C1    1  -0.216   0.375   0.009
    1UNL     C2    2  -0.218   0.234  -0.021
    1UNL     C3    3  -0.104   0.156  -0.043
    1UNL     C4    4  -0.094   0.019  -0.052
    1UNL     O1    5   0.023  -0.055  -0.050
    1UNL     C5    6   0.155   0.005  -0.026
    1UNL     O2    7   0.266  -0.071  -0.082
    1UNL     C6    8   0.395  -0.046  -0.023
    1UNL     C7    9   0.435   0.105  -0.045
    1UNL     O3   10   0.397   0.146  -0.172
    1UNL     C8   11   0.395  -0.108   0.120
    1UNL     O4   12   0.467  -0.226   0.142
    1UNL     C9   13   0.253  -0.106   0.183
    1UNL     O5   14   0.263  -0.097   0.325
    1UNL    C10   15   0.169   0.009   0.132
    1UNL     O6   16   0.049   0.014   0.204
    1UNL    C11   17  -0.214  -0.050  -0.053
    1UNL    C12   18  -0.222  -0.197  -0.072
    1UNL    C13   19  -0.318  -0.262   0.031
    1UNL    C14   20  -0.274  -0.224  -0.212
    1UNL    C15   21  -0.337   0.022  -0.042
    1UNL     O7   22  -0.458  -0.043  -0.062
    1UNL    C16   23  -0.343   0.167  -0.023
    1UNL     O8   24  -0.468   0.227  -0.001
    1UNL     H1   25  -0.264   0.384   0.109
    1UNL     H2   26  -0.115   0.423   0.005
    1UNL     H3   27  -0.279   0.434  -0.054
    1UNL     H4   28  -0.016   0.213  -0.054
    1UNL     H5   29   0.163   0.100  -0.070
    1UNL     H6   30   0.462  -0.108  -0.085
    1UNL     H7   31   0.381   0.165   0.030
    1UNL     H8   32   0.539   0.117  -0.027
    1UNL     H9   33   0.335   0.085  -0.236
    1UNL    H10   34   0.450  -0.036   0.180
    1UNL    H11   35   0.560  -0.224   0.107
    1UNL    H12   36   0.204  -0.202   0.156
    1UNL    H13   37   0.196  -0.038   0.362
    1UNL    H14   38   0.215   0.111   0.155
    1UNL    H15   39  -0.027  -0.034   0.157
    1UNL    H16   40  -0.129  -0.243  -0.052
    1UNL    H17   41  -0.425  -0.264   0.007
    1UNL    H18   42  -0.316  -0.205   0.125
    1UNL    H19   43  -0.303  -0.373   0.034
    1UNL    H20   44  -0.219  -0.190  -0.292
    1UNL    H21   45  -0.363  -0.166  -0.228
    1UNL    H22   46  -0.308  -0.326  -0.227
    1UNL    H23   47  -0.521   0.024  -0.039
    1UNL    H24   48  -0.473   0.324  -0.034
   0.00000   0.00000   0.00000   0.00000   0.00000   0.00000   0.00000   0.00000   0.00000
Generated with MDTraj, t= 29.0
 48
    1UNL     C1    1  -0.206   0.381  -0.006
    1UNL     C2    2  -0.214   0.232  -0.020
    1UNL     C3    3  -0.098   0.158  -0.021
    1UNL     C4    4  -0.090   0.021  -0.037
    1UNL     O1    5   0.027  -0.059  -0.046
    1UNL     C5    6   0.149   0.013  -0.026
    1UNL     O2    7   0.257  -0.050  -0.094
    1UNL     C6    8   0.384  -0.044  -0.031
    1UNL     C7    9   0.435   0.097  -0.029
    1UNL     O3   10   0.424   0.145  -0.158
    1UNL     C8   11   0.377  -0.115   0.112
    1UNL     O4   12   0.426  -0.246   0.108
    1UNL     C9   13   0.231  -0.106   0.175
    1UNL     O5   14   0.244  -0.080   0.319
    1UNL    C10   15   0.160   0.018   0.132
    1UNL     O6   16   0.036   0.035   0.193
    1UNL    C11   17  -0.211  -0.048  -0.042
    1UNL    C12   18  -0.210  -0.199  -0.074
    1UNL    C13   19  -0.272  -0.282   0.038
    1UNL    C14   20  -0.267  -0.229  -0.216
    1UNL    C15   21  -0.333   0.022  -0.035
    1UNL     O7   22  -0.451  -0.054  -0.025
    1UNL    C16   23  -0.337   0.166  -0.028
    1UNL     O8   24  -0.465   0.221  -0.020
    1UNL     H1   25  -0.302   0.427   0.015
    1UNL     H2   26  -0.136   0.414   0.078
    1UNL     H3   27  -0.167   0.434  -0.089
    1UNL     H4   28  -0.010   0.220  -0.023
    1UNL     H5   29   0.147   0.113  -0.056
    1UNL     H6   30   0.442  -0.110  -0.097
    1UNL     H7   31   0.380   0.150   0.051
    1UNL     H8   32   0.538   0.093  -0.000
    1UNL     H9   33   0.367   0.092  -0.210
    1UNL    H10   34   0.441  -0.057   0.175
    1UNL    H11   35   0.524  -0.247   0.095
    1UNL    H12   36   0.179  -0.203   0.147
    1UNL    H13   37   0.177  -0.016   0.350
    1UNL    H14   38   0.232   0.098   0.174
    1UNL    H15   39  -0.032  -0.021   0.155
    1UNL    H16   40  -0.111  -0.234  -0.071
    1UNL    H17   41  -0.376  -0.261   0.048
    1UNL    H18   42  -0.222  -0.247   0.132
    1UNL    H19   43  -0.268  -0.390   0.017
    1UNL    H20   44  -0.242  -0.148  -0.274
    1UNL    H21   45  -0.373  -0.226  -0.217
    1UNL    H22   46  -0.241  -0.328  -0.260
    1UNL    H23   47  -0.529   0.012  -0.026
    1UNL    H24   48  -0.455   0.323  -0.018
   0.00000   0.00000   0.00000   0.00000   0.00000   0.00000   0.00000   0.00000   0.00000
Generated with MDTraj, t= 30.0
 48
    1UNL     C1    1  -0.231   0.382  -0.002
    1UNL     C2    2  -0.225   0.228  -0.024
    1UNL     C3    3  -0.102   0.169  -0.025
    1UNL     C4    4  -0.093   0.032  -0.042
    1UNL     O1    5   0.025  -0.045  -0.053
    1UNL     C5    6   0.152   0.020  -0.029
    1UNL     O2    7   0.271  -0.045  -0.093
    1UNL     C6    8   0.393  -0.041  -0.017
    1UNL     C7    9   0.447   0.101  -0.020
    1UNL     O3   10   0.453   0.143  -0.155
    1UNL     C8   11   0.376  -0.134   0.118
    1UNL     O4   12   0.386  -0.265   0.082
    1UNL     C9   13   0.239  -0.092   0.184
    1UNL     O5   14   0.258  -0.091   0.328
    1UNL    C10   15   0.166   0.028   0.130
    1UNL     O6   16   0.043   0.047   0.191
    1UNL    C11   17  -0.210  -0.041  -0.057
    1UNL    C12   18  -0.207  -0.192  -0.074
    1UNL    C13   19  -0.249  -0.281   0.048
    1UNL    C14   20  -0.287  -0.249  -0.199
    1UNL    C15   21  -0.337   0.014  -0.040
    1UNL     O7   22  -0.460  -0.047  -0.036
    1UNL    C16   23  -0.342   0.154  -0.027
    1UNL     O8   24  -0.467   0.212  -0.016
    1UNL     H1   25  -0.327   0.411   0.038
    1UNL     H2   26  -0.149   0.409   0.070
    1UNL     H3   27  -0.211   0.438  -0.093
    1UNL     H4   28  -0.009   0.224   0.005
    1UNL     H5   29   0.151   0.114  -0.074
    1UNL     H6   30   0.455  -0.107  -0.074
    1UNL     H7   31   0.370   0.167   0.025
    1UNL     H8   32   0.533   0.115   0.043
    1UNL     H9   33   0.400   0.081  -0.204
    1UNL    H10   34   0.448  -0.112   0.192
    1UNL    H11   35   0.443  -0.280   0.003
    1UNL    H12   36   0.164  -0.173   0.154
    1UNL    H13   37   0.182  -0.036   0.366
    1UNL    H14   38   0.238   0.114   0.155
    1UNL    H15   39  -0.022  -0.024   0.171
    1UNL    H16   40  -0.109  -0.221  -0.091
    1UNL    H17   41  -0.339  -0.242   0.089
    1UNL    H18   42  -0.164  -0.270   0.122
    1UNL    H19   43  -0.271  -0.387   0.032
    1UNL    H20   44  -0.242  -0.203  -0.286
    1UNL    H21   45  -0.386  -0.221  -0.194
    1UNL    H22   46  -0.282  -0.358  -0.194
    1UNL    H23   47  -0.532   0.024  -0.024
    1UNL    H24   48  -0.459   0.297  -0.075
   0.00000   0.00000   0.00000   0.00000   0.00000   0.00000   0.00000   0.00000   0.00000
Generated with MDTraj, t= 31.0
 48
    1UNL     C1    1  -0.241   0.377   0.012
    1UNL     C2    2  -0.232   0.234  -0.030
    1UNL     C3    3  -0.115   0.167  -0.038
    1UNL     C4    4  -0.097   0.029  -0.048
    1UNL     O1    5   0.018  -0.043  -0.055
    1UNL     C5    6   0.142   0.026  -0.023
    1UNL     O2    7   0.258  -0.032  -0.097
    1UNL     C6    8   0.383  -0.053  -0.036
    1UNL     C7    9   0.477   0.066  -0.018
    1UNL     O3   10   0.479   0.161  -0.117
    1UNL     C8   11   0.372  -0.138   0.100
    1UNL     O4   12   0.380  -0.272   0.095
    1UNL     C9   13   0.242  -0.097   0.178
    1UNL     O5   14   0.280  -0.085   0.312
    1UNL    C10   15   0.170   0.031   0.133
    1UNL     O6   16   0.050   0.059   0.196
    1UNL    C11   17  -0.214  -0.045  -0.061
    1UNL    C12   18  -0.204  -0.192  -0.066
    1UNL    C13   19  -0.240  -0.257   0.067
    1UNL    C14   20  -0.297  -0.252  -0.173
    1UNL    C15   21  -0.341   0.014  -0.062
    1UNL     O7   22  -0.462  -0.049  -0.066
    1UNL    C16   23  -0.349   0.154  -0.035
    1UNL     O8   24  -0.472   0.197  -0.017
    1UNL     H1   25  -0.219   0.384   0.118
    1UNL     H2   26  -0.170   0.438  -0.042
    1UNL     H3   27  -0.340   0.429   0.003
    1UNL     H4   28  -0.032   0.228  -0.023
    1UNL     H5   29   0.131   0.120  -0.066
    1UNL     H6   30   0.421  -0.116  -0.114
    1UNL     H7   31   0.459   0.117   0.081
    1UNL     H8   32   0.581   0.037  -0.009
    1UNL     H9   33   0.392   0.156  -0.179
    1UNL    H10   34   0.453  -0.104   0.158
    1UNL    H11   35   0.459  -0.298   0.042
    1UNL    H12   36   0.170  -0.185   0.163
    1UNL    H13   37   0.203  -0.064   0.366
    1UNL    H14   38   0.246   0.115   0.152
    1UNL    H15   39  -0.014  -0.017   0.182
    1UNL    H16   40  -0.105  -0.216  -0.090
    1UNL    H17   41  -0.346  -0.264   0.083
    1UNL    H18   42  -0.184  -0.194   0.147
    1UNL    H19   43  -0.201  -0.354   0.097
    1UNL    H20   44  -0.266  -0.210  -0.273
    1UNL    H21   45  -0.398  -0.222  -0.165
    1UNL    H22   46  -0.299  -0.356  -0.168
    1UNL    H23   47  -0.527   0.016  -0.051
    1UNL    H24   48  -0.478   0.294   0.010
   0.00000   0.00000   0.00000   0.00000   0.00000   0.00000   0.00000   0.00000   0.00000
Generated with MDTraj, t= 32.0
 48
    1UNL     C1    1  -0.237   0.375  -0.011
    1UNL     C2    2  -0.222   0.229  -0.011
    1UNL     C3    3  -0.104   0.161  -0.008
    1UNL     C4    4  -0.092   0.028  -0.031
    1UNL     O1    5   0.027  -0.040  -0.044
    1UNL     C5    6   0.145   0.029  -0.023
    1UNL     O2    7   0.250  -0.035  -0.096
    1UNL     C6    8   0.375  -0.045  -0.029
    1UNL     C7    9   0.456   0.091  -0.018
    1UNL     O3   10   0.484   0.149  -0.142
    1UNL     C8   11   0.352  -0.134   0.095
    1UNL     O4   12   0.341  -0.271   0.058
    1UNL     C9   13   0.225  -0.096   0.181
    1UNL     O5   14   0.257  -0.103   0.317
    1UNL    C10   15   0.167   0.038   0.133
    1UNL     O6   16   0.060   0.072   0.215
    1UNL    C11   17  -0.206  -0.047  -0.058
    1UNL    C12   18  -0.193  -0.194  -0.059
    1UNL    C13   19  -0.226  -0.255   0.078
    1UNL    C14   20  -0.279  -0.248  -0.177
    1UNL    C15   21  -0.330   0.012  -0.058
    1UNL     O7   22  -0.449  -0.058  -0.073
    1UNL    C16   23  -0.336   0.154  -0.034
    1UNL     O8   24  -0.467   0.195  -0.033
    1UNL     H1   25  -0.143   0.425   0.013
    1UNL     H2   26  -0.274   0.411  -0.104
    1UNL     H3   27  -0.308   0.405   0.072
    1UNL     H4   28  -0.012   0.216   0.013
    1UNL     H5   29   0.129   0.125  -0.062
    1UNL     H6   30   0.428  -0.102  -0.104
    1UNL     H7   31   0.405   0.169   0.044
    1UNL     H8   32   0.550   0.065   0.032
    1UNL     H9   33   0.416   0.129  -0.212
    1UNL    H10   34   0.438  -0.121   0.156
    1UNL    H11   35   0.413  -0.298  -0.002
    1UNL    H12   36   0.148  -0.176   0.161
    1UNL    H13   37   0.183  -0.076   0.376
    1UNL    H14   38   0.237   0.127   0.149
    1UNL    H15   39   0.004  -0.005   0.233
    1UNL    H16   40  -0.094  -0.217  -0.078
    1UNL    H17   41  -0.332  -0.249   0.106
    1UNL    H18   42  -0.149  -0.222   0.157
    1UNL    H19   43  -0.206  -0.361   0.089
    1UNL    H20   44  -0.267  -0.179  -0.264
    1UNL    H21   45  -0.387  -0.253  -0.169
    1UNL    H22   46  -0.258  -0.344  -0.205
    1UNL    H23   47  -0.525   0.012  -0.072
    1UNL    H24   48  -0.468   0.287   0.003
   0.00000   0.00000   0.00000   0.00000   0.00000   0.00000   0.00000   0.00000   0.00000
Generated with MDTraj, t= 33.0
 48
    1UNL     C1    1  -0.241   0.379   0.000
    1UNL     C2    2  -0.240   0.233  -0.033
    1UNL     C3    3  -0.114   0.170  -0.022
    1UNL     C4    4  -0.103   0.034  -0.036
    1UNL     O1    5   0.021  -0.041  -0.036
    1UNL     C5    6   0.143   0.041  -0.014
    1UNL     O2    7   0.253  -0.019  -0.096
    1UNL     C6    8   0.381  -0.058  -0.037
    1UNL     C7    9   0.472   0.067  -0.012
    1UNL     O3   10   0.498   0.138  -0.134
    1UNL     C8   11   0.362  -0.136   0.091
    1UNL     O4   12   0.345  -0.273   0.046
    1UNL     C9   13   0.236  -0.099   0.177
    1UNL     O5   14   0.263  -0.092   0.314
    1UNL    C10   15   0.180   0.046   0.144
    1UNL     O6   16   0.082   0.079   0.238
    1UNL    C11   17  -0.217  -0.051  -0.049
    1UNL    C12   18  -0.191  -0.200  -0.062
    1UNL    C13   19  -0.235  -0.278   0.063
    1UNL    C14   20  -0.255  -0.253  -0.191
    1UNL    C15   21  -0.345   0.011  -0.044
    1UNL     O7   22  -0.465  -0.055  -0.044
    1UNL    C16   23  -0.356   0.155  -0.043
    1UNL     O8   24  -0.489   0.206  -0.055
    1UNL     H1   25  -0.151   0.433  -0.035
    1UNL     H2   26  -0.330   0.431  -0.033
    1UNL     H3   27  -0.238   0.385   0.111
    1UNL     H4   28  -0.026   0.231  -0.018
    1UNL     H5   29   0.126   0.136  -0.057
    1UNL     H6   30   0.436  -0.125  -0.105
    1UNL     H7   31   0.412   0.127   0.061
    1UNL     H8   32   0.571   0.042   0.032
    1UNL     H9   33   0.421   0.139  -0.185
    1UNL    H10   34   0.453  -0.134   0.150
    1UNL    H11   35   0.420  -0.316  -0.002
    1UNL    H12   36   0.159  -0.178   0.162
    1UNL    H13   37   0.195  -0.034   0.360
    1UNL    H14   38   0.264   0.119   0.168
    1UNL    H15   39  -0.001   0.035   0.213
    1UNL    H16   40  -0.088  -0.214  -0.075
    1UNL    H17   41  -0.341  -0.253   0.091
    1UNL    H18   42  -0.153  -0.266   0.137
    1UNL    H19   43  -0.234  -0.387   0.054
    1UNL    H20   44  -0.226  -0.195  -0.276
    1UNL    H21   45  -0.366  -0.245  -0.193
    1UNL    H22   46  -0.240  -0.360  -0.205
    1UNL    H23   47  -0.533   0.008  -0.028
    1UNL    H24   48  -0.483   0.302  -0.053
   0.00000   0.00000   0.00000   0.00000   0.00000   0.00000   0.00000   0.00000   0.00000
Generated with MDTraj, t= 34.0
 48
    1UNL     C1    1  -0.264   0.374  -0.033
    1UNL     C2    2  -0.244   0.230  -0.025
    1UNL     C3    3  -0.113   0.178  -0.014
    1UNL     C4    4  -0.090   0.040  -0.025
    1UNL     O1    5   0.042  -0.019  -0.030
    1UNL     C5    6   0.153   0.059  -0.002
    1UNL     O2    7   0.260   0.019  -0.091
    1UNL     C6    8   0.375  -0.068  -0.049
    1UNL     C7    9   0.504   0.023  -0.030
    1UNL     O3   10   0.501   0.123  -0.133
    1UNL     C8   11   0.353  -0.137   0.086
    1UNL     O4   12   0.340  -0.281   0.063
    1UNL     C9   13   0.241  -0.081   0.179
    1UNL     O5   14   0.290  -0.081   0.314
    1UNL    C10   15   0.171   0.054   0.150
    1UNL     O6   16   0.060   0.060   0.233
    1UNL    C11   17  -0.204  -0.047  -0.048
    1UNL    C12   18  -0.199  -0.198  -0.061
    1UNL    C13   19  -0.285  -0.266   0.052
    1UNL    C14   20  -0.260  -0.240  -0.199
    1UNL    C15   21  -0.337   0.007  -0.047
    1UNL     O7   22  -0.445  -0.069  -0.066
    1UNL    C16   23  -0.361   0.145  -0.033
    1UNL     O8   24  -0.495   0.183  -0.018
    1UNL     H1   25  -0.170   0.432  -0.015
    1UNL     H2   26  -0.308   0.409  -0.128
    1UNL     H3   27  -0.330   0.404   0.045
    1UNL     H4   28  -0.041   0.256  -0.016
    1UNL     H5   29   0.138   0.160  -0.031
    1UNL     H6   30   0.401  -0.148  -0.124
    1UNL     H7   31   0.514   0.078   0.068
    1UNL     H8   32   0.596  -0.034  -0.047
    1UNL     H9   33   0.400   0.141  -0.146
    1UNL    H10   34   0.447  -0.116   0.143
    1UNL    H11   35   0.411  -0.320   0.006
    1UNL    H12   36   0.160  -0.153   0.181
    1UNL    H13   37   0.223  -0.042   0.373
    1UNL    H14   38   0.239   0.140   0.181
    1UNL    H15   39  -0.012   0.009   0.183
    1UNL    H16   40  -0.099  -0.225  -0.059
    1UNL    H17   41  -0.392  -0.241   0.025
    1UNL    H18   42  -0.242  -0.236   0.146
    1UNL    H19   43  -0.273  -0.376   0.050
    1UNL    H20   44  -0.205  -0.206  -0.279
    1UNL    H21   45  -0.358  -0.194  -0.209
    1UNL    H22   46  -0.281  -0.353  -0.189
    1UNL    H23   47  -0.525  -0.010  -0.098
    1UNL    H24   48  -0.511   0.272   0.009
   0.00000   0.00000   0.00000   0.00000   0.00000   0.00000   0.00000   0.00000   0.00000
Generated with MDTraj, t= 35.0
 48
    1UNL     C1    1  -0.248   0.374   0.004
    1UNL     C2    2  -0.242   0.227  -0.034
    1UNL     C3    3  -0.115   0.172  -0.031
    1UNL     C4    4  -0.099   0.034  -0.032
    1UNL     O1    5   0.035  -0.020  -0.032
    1UNL     C5    6   0.140   0.071   0.002
    1UNL     O2    7   0.255   0.033  -0.080
    1UNL     C6    8   0.364  -0.048  -0.033
    1UNL     C7    9   0.486   0.031  -0.029
    1UNL     O3   10   0.505   0.081  -0.161
    1UNL     C8   11   0.326  -0.138   0.082
    1UNL     O4   12   0.302  -0.275   0.045
    1UNL     C9   13   0.224  -0.088   0.184
    1UNL     O5   14   0.292  -0.092   0.314
    1UNL    C10   15   0.173   0.062   0.156
    1UNL     O6   16   0.065   0.095   0.241
    1UNL    C11   17  -0.211  -0.053  -0.046
    1UNL    C12   18  -0.179  -0.200  -0.053
    1UNL    C13   19  -0.259  -0.286   0.041
    1UNL    C14   20  -0.194  -0.246  -0.199
    1UNL    C15   21  -0.339   0.003  -0.047
    1UNL     O7   22  -0.458  -0.071  -0.052
    1UNL    C16   23  -0.354   0.146  -0.035
    1UNL     O8   24  -0.488   0.195  -0.033
    1UNL     H1   25  -0.150   0.413   0.036
    1UNL     H2   26  -0.289   0.440  -0.077
    1UNL     H3   27  -0.312   0.378   0.088
    1UNL     H4   28  -0.029   0.239  -0.032
    1UNL     H5   29   0.118   0.176  -0.022
    1UNL     H6   30   0.365  -0.128  -0.114
    1UNL     H7   31   0.479   0.117   0.043
    1UNL     H8   32   0.576  -0.029  -0.012
    1UNL     H9   33   0.417   0.097  -0.201
    1UNL    H10   34   0.421  -0.146   0.145
    1UNL    H11   35   0.373  -0.304  -0.017
    1UNL    H12   36   0.141  -0.156   0.185
    1UNL    H13   37   0.233  -0.058   0.382
    1UNL    H14   38   0.255   0.137   0.178
    1UNL    H15   39  -0.013   0.043   0.211
    1UNL    H16   40  -0.076  -0.208  -0.031
    1UNL    H17   41  -0.357  -0.298  -0.016
    1UNL    H18   42  -0.257  -0.251   0.141
    1UNL    H19   43  -0.212  -0.388   0.050
    1UNL    H20   44  -0.163  -0.167  -0.263
    1UNL    H21   45  -0.296  -0.268  -0.223
    1UNL    H22   46  -0.139  -0.347  -0.209
    1UNL    H23   47  -0.528  -0.019  -0.012
    1UNL    H24   48  -0.479   0.288  -0.038
   0.00000   0.00000   0.00000   0.00000   0.00000   0.00000   0.00000   0.00000   0.00000
Generated with MDTraj, t= 36.0
 48
    1UNL     C1    1  -0.288   0.370  -0.002
    1UNL     C2    2  -0.259   0.223  -0.005
    1UNL     C3    3  -0.132   0.182   0.020
    1UNL     C4    4  -0.097   0.047  -0.003
    1UNL     O1    5   0.035   0.002  -0.023
    1UNL     C5    6   0.149   0.083  -0.006
    1UNL     O2    7   0.266   0.032  -0.091
    1UNL     C6    8   0.364  -0.064  -0.043
    1UNL     C7    9   0.508  -0.010  -0.039
    1UNL     O3   10   0.531   0.063  -0.152
    1UNL     C8   11   0.309  -0.149   0.077
    1UNL     O4   12   0.249  -0.267   0.033
    1UNL     C9   13   0.211  -0.081   0.170
    1UNL     O5   14   0.264  -0.092   0.303
    1UNL    C10   15   0.189   0.074   0.139
    1UNL     O6   16   0.090   0.124   0.229
    1UNL    C11   17  -0.198  -0.047  -0.033
    1UNL    C12   18  -0.164  -0.191  -0.044
    1UNL    C13   19  -0.253  -0.280   0.044
    1UNL    C14   20  -0.161  -0.212  -0.191
    1UNL    C15   21  -0.328  -0.004  -0.043
    1UNL     O7   22  -0.442  -0.088  -0.058
    1UNL    C16   23  -0.358   0.133  -0.033
    1UNL     O8   24  -0.493   0.163  -0.049
    1UNL     H1   25  -0.197   0.429   0.004
    1UNL     H2   26  -0.344   0.405  -0.092
    1UNL     H3   27  -0.348   0.391   0.087
    1UNL     H4   28  -0.056   0.246   0.048
    1UNL     H5   29   0.122   0.187  -0.040
    1UNL     H6   30   0.373  -0.138  -0.130
    1UNL     H7   31   0.515   0.069   0.040
    1UNL     H8   32   0.590  -0.082  -0.032
    1UNL     H9   33   0.453   0.100  -0.183
    1UNL    H10   34   0.400  -0.187   0.137
    1UNL    H11   35   0.273  -0.279  -0.061
    1UNL    H12   36   0.118  -0.132   0.164
    1UNL    H13   37   0.207  -0.043   0.368
    1UNL    H14   38   0.285   0.131   0.149
    1UNL    H15   39   0.013   0.067   0.239
    1UNL    H16   40  -0.064  -0.196  -0.010
    1UNL    H17   41  -0.360  -0.268   0.012
    1UNL    H18   42  -0.239  -0.267   0.148
    1UNL    H19   43  -0.236  -0.391   0.034
    1UNL    H20   44  -0.077  -0.159  -0.248
    1UNL    H21   45  -0.247  -0.176  -0.243
    1UNL    H22   46  -0.164  -0.320  -0.209
    1UNL    H23   47  -0.517  -0.035  -0.102
    1UNL    H24   48  -0.499   0.257  -0.046
   0.00000   0.00000   0.00000   0.00000   0.00000   0.00000   0.00000   0.00000   0.00000
Generated with MDTraj, t= 37.0
 48
    1UNL     C1    1  -0.299   0.366   0.023
    1UNL     C2    2  -0.257   0.228  -0.014
    1UNL     C3    3  -0.128   0.184  -0.008
    1UNL     C4    4  -0.087   0.051  -0.015
    1UNL     O1    5   0.039   0.002  -0.020
    1UNL     C5    6   0.145   0.088  -0.007
    1UNL     O2    7   0.259   0.046  -0.094
    1UNL     C6    8   0.337  -0.070  -0.054
    1UNL     C7    9   0.487  -0.029  -0.023
    1UNL     O3   10   0.543   0.042  -0.127
    1UNL     C8   11   0.270  -0.155   0.067
    1UNL     O4   12   0.185  -0.256   0.020
    1UNL     C9   13   0.204  -0.061   0.171
    1UNL     O5   14   0.274  -0.084   0.294
    1UNL    C10   15   0.202   0.094   0.137
    1UNL     O6   16   0.125   0.155   0.244
    1UNL    C11   17  -0.192  -0.046  -0.038
    1UNL    C12   18  -0.151  -0.188  -0.053
    1UNL    C13   19  -0.236  -0.278   0.037
    1UNL    C14   20  -0.140  -0.229  -0.199
    1UNL    C15   21  -0.323  -0.011  -0.055
    1UNL     O7   22  -0.426  -0.101  -0.074
    1UNL    C16   23  -0.353   0.123  -0.028
    1UNL     O8   24  -0.485   0.143  -0.019
    1UNL     H1   25  -0.215   0.413   0.073
    1UNL     H2   26  -0.326   0.432  -0.059
    1UNL     H3   27  -0.384   0.366   0.098
    1UNL     H4   28  -0.049   0.260   0.010
    1UNL     H5   29   0.111   0.190  -0.040
    1UNL     H6   30   0.342  -0.131  -0.149
    1UNL     H7   31   0.496   0.033   0.068
    1UNL     H8   32   0.541  -0.121  -0.017
    1UNL     H9   33   0.466   0.102  -0.164
    1UNL    H10   34   0.352  -0.216   0.123
    1UNL    H11   35   0.175  -0.316   0.097
    1UNL    H12   36   0.105  -0.094   0.189
    1UNL    H13   37   0.248  -0.016   0.363
    1UNL    H14   38   0.303   0.138   0.131
    1UNL    H15   39   0.036   0.117   0.252
    1UNL    H16   40  -0.050  -0.185  -0.016
    1UNL    H17   41  -0.342  -0.270   0.007
    1UNL    H18   42  -0.220  -0.262   0.143
    1UNL    H19   43  -0.213  -0.386   0.024
    1UNL    H20   44  -0.073  -0.158  -0.266
    1UNL    H21   45  -0.236  -0.219  -0.251
    1UNL    H22   46  -0.115  -0.330  -0.214
    1UNL    H23   47  -0.504  -0.061  -0.033
    1UNL    H24   48  -0.514   0.234  -0.041
   0.00000   0.00000   0.00000   0.00000   0.00000   0.00000   0.00000   0.00000   0.00000
Generated with MDTraj, t= 38.0
 48
    1UNL     C1    1  -0.302   0.362   0.041
    1UNL     C2    2  -0.261   0.219   0.004
    1UNL     C3    3  -0.122   0.186  -0.000
    1UNL     C4    4  -0.085   0.055  -0.031
    1UNL     O1    5   0.047   0.001  -0.048
    1UNL     C5    6   0.148   0.089  -0.010
    1UNL     O2    7   0.275   0.047  -0.071
    1UNL     C6    8   0.332  -0.082  -0.042
    1UNL     C7    9   0.485  -0.064  -0.027
    1UNL     O3   10   0.524   0.029  -0.128
    1UNL     C8   11   0.262  -0.153   0.073
    1UNL     O4   12   0.154  -0.230   0.041
    1UNL     C9   13   0.214  -0.059   0.182
    1UNL     O5   14   0.305  -0.066   0.288
    1UNL    C10   15   0.181   0.090   0.146
    1UNL     O6   16   0.094   0.167   0.234
    1UNL    C11   17  -0.180  -0.043  -0.052
    1UNL    C12   18  -0.137  -0.187  -0.074
    1UNL    C13   19  -0.191  -0.289   0.026
    1UNL    C14   20  -0.161  -0.235  -0.215
    1UNL    C15   21  -0.313  -0.012  -0.048
    1UNL     O7   22  -0.417  -0.099  -0.073
    1UNL    C16   23  -0.354   0.122  -0.023
    1UNL     O8   24  -0.493   0.148  -0.021
    1UNL     H1   25  -0.212   0.422   0.039
    1UNL     H2   26  -0.371   0.407  -0.029
    1UNL     H3   27  -0.349   0.366   0.145
    1UNL     H4   28  -0.047   0.257   0.025
    1UNL     H5   29   0.120   0.192  -0.045
    1UNL     H6   30   0.308  -0.136  -0.136
    1UNL     H7   31   0.496  -0.016   0.073
    1UNL     H8   32   0.541  -0.154  -0.028
    1UNL     H9   33   0.458   0.097  -0.139
    1UNL    H10   34   0.335  -0.229   0.121
    1UNL    H11   35   0.087  -0.234   0.114
    1UNL    H12   36   0.121  -0.098   0.221
    1UNL    H13   37   0.272   0.005   0.348
    1UNL    H14   38   0.278   0.140   0.145
    1UNL    H15   39   0.005   0.167   0.193
    1UNL    H16   40  -0.031  -0.179  -0.064
    1UNL    H17   41  -0.293  -0.310  -0.002
    1UNL    H18   42  -0.181  -0.248   0.129
    1UNL    H19   43  -0.133  -0.382   0.022
    1UNL    H20   44  -0.144  -0.144  -0.283
    1UNL    H21   45  -0.273  -0.250  -0.221
    1UNL    H22   46  -0.113  -0.323  -0.247
    1UNL    H23   47  -0.498  -0.047  -0.093
    1UNL    H24   48  -0.505   0.241   0.015
   0.00000   0.00000   0.00000   0.00000   0.00000   0.00000   0.00000   0.00000   0.00000
Generated with MDTraj, t= 39.0
 48
    1UNL     C1    1  -0.307   0.359   0.038
    1UNL     C2    2  -0.258   0.220   0.014
    1UNL     C3    3  -0.123   0.184   0.002
    1UNL     C4    4  -0.081   0.058  -0.037
    1UNL     O1    5   0.054   0.004  -0.050
    1UNL     C5    6   0.155   0.092  -0.009
    1UNL     O2    7   0.293   0.061  -0.055
    1UNL     C6    8   0.333  -0.072  -0.033
    1UNL     C7    9   0.487  -0.084  -0.032
    1UNL     O3   10   0.543  -0.021  -0.144
    1UNL     C8   11   0.265  -0.136   0.095
    1UNL     O4   12   0.167  -0.232   0.068
    1UNL     C9   13   0.216  -0.037   0.205
    1UNL     O5   14   0.335  -0.024   0.290
    1UNL    C10   15   0.157   0.098   0.146
    1UNL     O6   16   0.041   0.120   0.219
    1UNL    C11   17  -0.177  -0.038  -0.065
    1UNL    C12   18  -0.144  -0.179  -0.113
    1UNL    C13   19  -0.170  -0.287  -0.002
    1UNL    C14   20  -0.215  -0.228  -0.244
    1UNL    C15   21  -0.312  -0.002  -0.050
    1UNL     O7   22  -0.411  -0.099  -0.057
    1UNL    C16   23  -0.355   0.126  -0.014
    1UNL     O8   24  -0.498   0.144  -0.010
    1UNL     H1   25  -0.225   0.432   0.023
    1UNL     H2   26  -0.385   0.389  -0.032
    1UNL     H3   27  -0.350   0.369   0.139
    1UNL     H4   28  -0.054   0.265   0.016
    1UNL     H5   29   0.123   0.193  -0.046
    1UNL     H6   30   0.304  -0.123  -0.125
    1UNL     H7   31   0.534  -0.046   0.061
    1UNL     H8   32   0.508  -0.189  -0.033
    1UNL     H9   33   0.493   0.065  -0.163
    1UNL    H10   34   0.355  -0.179   0.147
    1UNL    H11   35   0.192  -0.326   0.085
    1UNL    H12   36   0.139  -0.087   0.265
    1UNL    H13   37   0.308   0.022   0.371
    1UNL    H14   38   0.224   0.178   0.166
    1UNL    H15   39  -0.011   0.034   0.224
    1UNL    H16   40  -0.038  -0.171  -0.137
    1UNL    H17   41  -0.275  -0.286   0.018
    1UNL    H18   42  -0.112  -0.256   0.091
    1UNL    H19   43  -0.143  -0.388  -0.033
    1UNL    H20   44  -0.184  -0.171  -0.331
    1UNL    H21   45  -0.325  -0.209  -0.225
    1UNL    H22   46  -0.201  -0.338  -0.258
    1UNL    H23   47  -0.496  -0.065  -0.017
    1UNL    H24   48  -0.524   0.227   0.043
   0.00000   0.00000   0.00000   0.00000   0.00000   0.00000   0.00000   0.00000   0.00000
Generated with MDTraj, t= 40.0
 48
    1UNL     C1    1  -0.277   0.360   0.048
    1UNL     C2    2  -0.243   0.233  -0.004
    1UNL     C3    3  -0.114   0.190  -0.046
    1UNL     C4    4  -0.071   0.057  -0.068
    1UNL     O1    5   0.054  -0.002  -0.063
    1UNL     C5    6   0.144   0.096   0.003
    1UNL     O2    7   0.283   0.071  -0.039
    1UNL     C6    8   0.320  -0.065  -0.014
    1UNL     C7    9   0.473  -0.086  -0.043
    1UNL     O3   10   0.493  -0.040  -0.170
    1UNL     C8   11   0.271  -0.130   0.122
    1UNL     O4   12   0.168  -0.232   0.103
    1UNL     C9   13   0.231  -0.028   0.225
    1UNL     O5   14   0.349   0.017   0.294
    1UNL    C10   15   0.136   0.085   0.160
    1UNL     O6   16   0.007   0.060   0.210
    1UNL    C11   17  -0.174  -0.041  -0.080
    1UNL    C12   18  -0.136  -0.180  -0.128
    1UNL    C13   19  -0.148  -0.283  -0.018
    1UNL    C14   20  -0.221  -0.216  -0.248
    1UNL    C15   21  -0.306  -0.004  -0.049
    1UNL     O7   22  -0.403  -0.097  -0.067
    1UNL    C16   23  -0.343   0.127  -0.005
    1UNL     O8   24  -0.477   0.135   0.031
    1UNL     H1   25  -0.186   0.424   0.065
    1UNL     H2   26  -0.344   0.413  -0.024
    1UNL     H3   27  -0.337   0.345   0.136
    1UNL     H4   28  -0.037   0.271  -0.041
    1UNL     H5   29   0.121   0.199  -0.034
    1UNL     H6   30   0.263  -0.119  -0.088
    1UNL     H7   31   0.528  -0.018   0.027
    1UNL     H8   32   0.515  -0.184  -0.029
    1UNL     H9   33   0.447   0.050  -0.182
    1UNL    H10   34   0.359  -0.181   0.165
    1UNL    H11   35   0.083  -0.187   0.083
    1UNL    H12   36   0.178  -0.092   0.301
    1UNL    H13   37   0.332   0.054   0.382
    1UNL    H14   38   0.165   0.176   0.207
    1UNL    H15   39  -0.031  -0.032   0.196
    1UNL    H16   40  -0.031  -0.170  -0.161
    1UNL    H17   41  -0.242  -0.271   0.034
    1UNL    H18   42  -0.069  -0.273   0.063
    1UNL    H19   43  -0.152  -0.384  -0.053
    1UNL    H20   44  -0.214  -0.137  -0.319
    1UNL    H21   45  -0.329  -0.231  -0.222
    1UNL    H22   46  -0.179  -0.313  -0.302
    1UNL    H23   47  -0.489  -0.056  -0.054
    1UNL    H24   48  -0.518   0.230   0.023
   0.00000   0.00000   0.00000   0.00000   0.00000   0.00000   0.00000   0.00000   0.00000
Generated with MDTraj, t= 41.0
 48
    1UNL     C1    1  -0.272   0.362   0.039
    1UNL     C2    2  -0.240   0.216   0.013
    1UNL     C3    3  -0.108   0.182  -0.010
    1UNL     C4    4  -0.073   0.054  -0.053
    1UNL     O1    5   0.062   0.014  -0.068
    1UNL     C5    6   0.155   0.099   0.013
    1UNL     O2    7   0.294   0.072  -0.011
    1UNL     C6    8   0.312  -0.067  -0.006
    1UNL     C7    9   0.454  -0.104  -0.044
    1UNL     O3   10   0.471  -0.049  -0.170
    1UNL     C8   11   0.275  -0.131   0.134
    1UNL     O4   12   0.159  -0.208   0.099
    1UNL     C9   13   0.246  -0.016   0.231
    1UNL     O5   14   0.358   0.062   0.255
    1UNL    C10   15   0.127   0.075   0.162
    1UNL     O6   16   0.009   0.007   0.195
    1UNL    C11   17  -0.174  -0.040  -0.080
    1UNL    C12   18  -0.134  -0.174  -0.133
    1UNL    C13   19  -0.170  -0.270  -0.021
    1UNL    C14   20  -0.205  -0.207  -0.263
    1UNL    C15   21  -0.307  -0.009  -0.049
    1UNL     O7   22  -0.407  -0.101  -0.070
    1UNL    C16   23  -0.339   0.124  -0.006
    1UNL     O8   24  -0.481   0.139   0.015
    1UNL     H1   25  -0.208   0.431  -0.024
    1UNL     H2   26  -0.378   0.381   0.007
    1UNL     H3   27  -0.272   0.387   0.142
    1UNL     H4   28  -0.035   0.249   0.015
    1UNL     H5   29   0.131   0.203  -0.013
    1UNL     H6   30   0.249  -0.113  -0.079
    1UNL     H7   31   0.536  -0.081   0.029
    1UNL     H8   32   0.458  -0.213  -0.056
    1UNL     H9   33   0.449   0.040  -0.170
    1UNL    H10   34   0.361  -0.189   0.162
    1UNL    H11   35   0.175  -0.303   0.079
    1UNL    H12   36   0.207  -0.054   0.332
    1UNL    H13   37   0.331   0.140   0.312
    1UNL    H14   38   0.115   0.168   0.212
    1UNL    H15   39   0.039  -0.084   0.206
    1UNL    H16   40  -0.023  -0.174  -0.145
    1UNL    H17   41  -0.278  -0.292  -0.023
    1UNL    H18   42  -0.150  -0.233   0.082
    1UNL    H19   43  -0.129  -0.368  -0.034
    1UNL    H20   44  -0.183  -0.137  -0.343
    1UNL    H21   45  -0.317  -0.214  -0.256
    1UNL    H22   46  -0.166  -0.306  -0.307
    1UNL    H23   47  -0.497  -0.063  -0.037
    1UNL    H24   48  -0.502   0.209   0.085
   0.00000   0.00000   0.00000   0.00000   0.00000   0.00000   0.00000   0.00000   0.00000
Generated with MDTraj, t= 42.0
 48
    1UNL     C1    1  -0.309   0.352   0.065
    1UNL     C2    2  -0.266   0.221   0.016
    1UNL     C3    3  -0.130   0.206  -0.015
    1UNL     C4    4  -0.090   0.078  -0.053
    1UNL     O1    5   0.046   0.032  -0.077
    1UNL     C5    6   0.156   0.085   0.012
    1UNL     O2    7   0.289   0.050  -0.030
    1UNL     C6    8   0.317  -0.093  -0.006
    1UNL     C7    9   0.461  -0.116  -0.041
    1UNL     O3   10   0.482  -0.056  -0.171
    1UNL     C8   11   0.286  -0.138   0.137
    1UNL     O4   12   0.201  -0.250   0.140
    1UNL     C9   13   0.262  -0.013   0.221
    1UNL     O5   14   0.382   0.069   0.230
    1UNL    C10   15   0.139   0.059   0.164
    1UNL     O6   16   0.009   0.006   0.204
    1UNL    C11   17  -0.182  -0.028  -0.062
    1UNL    C12   18  -0.130  -0.161  -0.113
    1UNL    C13   19  -0.177  -0.273  -0.019
    1UNL    C14   20  -0.158  -0.182  -0.260
    1UNL    C15   21  -0.319   0.000  -0.053
    1UNL     O7   22  -0.417  -0.095  -0.078
    1UNL    C16   23  -0.364   0.127  -0.015
    1UNL     O8   24  -0.498   0.149  -0.016
    1UNL     H1   25  -0.335   0.420  -0.018
    1UNL     H2   26  -0.401   0.336   0.126
    1UNL     H3   27  -0.241   0.397   0.137
    1UNL     H4   28  -0.049   0.275   0.007
    1UNL     H5   29   0.141   0.191  -0.005
    1UNL     H6   30   0.242  -0.144  -0.062
    1UNL     H7   31   0.530  -0.077   0.040
    1UNL     H8   32   0.488  -0.222  -0.041
    1UNL     H9   33   0.449   0.044  -0.164
    1UNL    H10   34   0.377  -0.173   0.179
    1UNL    H11   35   0.170  -0.266   0.233
    1UNL    H12   36   0.236  -0.048   0.326
    1UNL    H13   37   0.370   0.160   0.270
    1UNL    H14   38   0.132   0.159   0.206
    1UNL    H15   39   0.000  -0.068   0.137
    1UNL    H16   40  -0.017  -0.162  -0.098
    1UNL    H17   41  -0.289  -0.280  -0.019
    1UNL    H18   42  -0.143  -0.258   0.081
    1UNL    H19   43  -0.142  -0.368  -0.061
    1UNL    H20   44  -0.108  -0.103  -0.328
    1UNL    H21   45  -0.269  -0.180  -0.280
    1UNL    H22   46  -0.111  -0.275  -0.299
    1UNL    H23   47  -0.503  -0.057  -0.065
    1UNL    H24   48  -0.515   0.244  -0.033
   0.00000   0.00000   0.00000   0.00000   0.00000   0.00000   0.00000   0.00000   0.00000
Generated with MDTraj, t= 43.0
 48
    1UNL     C1    1  -0.309   0.363   0.057
    1UNL     C2    2  -0.263   0.224   0.019
    1UNL     C3    3  -0.130   0.188  -0.001
    1UNL     C4    4  -0.082   0.065  -0.042
    1UNL     O1    5   0.046   0.020  -0.045
    1UNL     C5    6   0.150   0.082   0.023
    1UNL     O2    7   0.271   0.050  -0.030
    1UNL     C6    8   0.315  -0.085  -0.008
    1UNL     C7    9   0.447  -0.117  -0.075
    1UNL     O3   10   0.465  -0.066  -0.204
    1UNL     C8   11   0.313  -0.126   0.144
    1UNL     O4   12   0.212  -0.220   0.161
    1UNL     C9   13   0.275  -0.004   0.238
    1UNL     O5   14   0.381   0.083   0.255
    1UNL    C10   15   0.144   0.063   0.176
    1UNL     O6   16   0.036  -0.030   0.203
    1UNL    C11   17  -0.181  -0.033  -0.068
    1UNL    C12   18  -0.135  -0.170  -0.110
    1UNL    C13   19  -0.217  -0.275  -0.027
    1UNL    C14   20  -0.152  -0.191  -0.261
    1UNL    C15   21  -0.318   0.000  -0.066
    1UNL     O7   22  -0.411  -0.083  -0.114
    1UNL    C16   23  -0.359   0.128  -0.028
    1UNL     O8   24  -0.497   0.148  -0.022
    1UNL     H1   25  -0.408   0.385   0.020
    1UNL     H2   26  -0.308   0.376   0.167
    1UNL     H3   27  -0.236   0.440   0.020
    1UNL     H4   28  -0.060   0.257   0.051
    1UNL     H5   29   0.146   0.187   0.000
    1UNL     H6   30   0.249  -0.151  -0.063
    1UNL     H7   31   0.530  -0.078  -0.013
    1UNL     H8   32   0.471  -0.224  -0.069
    1UNL     H9   33   0.446   0.027  -0.199
    1UNL    H10   34   0.407  -0.170   0.163
    1UNL    H11   35   0.135  -0.173   0.202
    1UNL    H12   36   0.250  -0.050   0.338
    1UNL    H13   37   0.366   0.158   0.319
    1UNL    H14   38   0.123   0.159   0.230
    1UNL    H15   39  -0.052   0.013   0.218
    1UNL    H16   40  -0.025  -0.178  -0.078
    1UNL    H17   41  -0.328  -0.263  -0.037
    1UNL    H18   42  -0.187  -0.268   0.073
    1UNL    H19   43  -0.191  -0.372  -0.073
    1UNL    H20   44  -0.075  -0.119  -0.317
    1UNL    H21   45  -0.261  -0.164  -0.284
    1UNL    H22   46  -0.117  -0.288  -0.290
    1UNL    H23   47  -0.503  -0.036  -0.117
    1UNL    H24   48  -0.526   0.226   0.024
   0.00000   0.00000   0.00000   0.00000   0.00000   0.00000   0.00000   0.00000   0.00000
Generated with MDTraj, t= 44.0
 48
    1UNL     C1    1  -0.275   0.365   0.043
    1UNL     C2    2  -0.244   0.221   0.013
    1UNL     C3    3  -0.110   0.179   0.007
    1UNL     C4    4  -0.077   0.047  -0.034
    1UNL     O1    5   0.049  -0.006  -0.017
    1UNL     C5    6   0.139   0.089   0.044
    1UNL     O2    7   0.268   0.070  -0.013
    1UNL     C6    8   0.310  -0.071  -0.004
    1UNL     C7    9   0.430  -0.083  -0.100
    1UNL     O3   10   0.397  -0.065  -0.229
    1UNL     C8   11   0.323  -0.117   0.143
    1UNL     O4   12   0.264  -0.245   0.169
    1UNL     C9   13   0.274  -0.004   0.245
    1UNL     O5   14   0.385   0.088   0.262
    1UNL    C10   15   0.138   0.060   0.205
    1UNL     O6   16   0.007  -0.003   0.245
    1UNL    C11   17  -0.178  -0.043  -0.074
    1UNL    C12   18  -0.151  -0.185  -0.127
    1UNL    C13   19  -0.234  -0.286  -0.048
    1UNL    C14   20  -0.171  -0.216  -0.280
    1UNL    C15   21  -0.309   0.001  -0.082
    1UNL     O7   22  -0.412  -0.081  -0.126
    1UNL    C16   23  -0.337   0.130  -0.032
    1UNL     O8   24  -0.472   0.163  -0.030
    1UNL     H1   25  -0.355   0.397  -0.020
    1UNL     H2   26  -0.302   0.372   0.148
    1UNL     H3   27  -0.182   0.432   0.032
    1UNL     H4   28  -0.036   0.237   0.046
    1UNL     H5   29   0.125   0.190   0.012
    1UNL     H6   30   0.236  -0.141  -0.051
    1UNL     H7   31   0.509  -0.015  -0.070
    1UNL     H8   32   0.482  -0.178  -0.088
    1UNL     H9   33   0.353   0.018  -0.237
    1UNL    H10   34   0.425  -0.136   0.166
    1UNL    H11   35   0.168  -0.227   0.176
    1UNL    H12   36   0.257  -0.054   0.341
    1UNL    H13   37   0.349   0.177   0.276
    1UNL    H14   38   0.142   0.157   0.265
    1UNL    H15   39  -0.067   0.058   0.249
    1UNL    H16   40  -0.040  -0.196  -0.101
    1UNL    H17   41  -0.339  -0.297  -0.079
    1UNL    H18   42  -0.235  -0.252   0.052
    1UNL    H19   43  -0.188  -0.387  -0.054
    1UNL    H20   44  -0.104  -0.140  -0.334
    1UNL    H21   45  -0.283  -0.198  -0.303
    1UNL    H22   46  -0.126  -0.310  -0.310
    1UNL    H23   47  -0.498  -0.044  -0.110
    1UNL    H24   48  -0.477   0.236   0.028
   0.00000   0.00000   0.00000   0.00000   0.00000   0.00000   0.00000   0.00000   0.00000
Generated with MDTraj, t= 45.0
 48
    1UNL     C1    1  -0.295   0.359   0.048
    1UNL     C2    2  -0.268   0.216   0.014
    1UNL     C3    3  -0.138   0.174   0.022
    1UNL     C4    4  -0.097   0.048  -0.014
    1UNL     O1    5   0.033  -0.009   0.002
    1UNL     C5    6   0.143   0.082   0.040
    1UNL     O2    7   0.270   0.052  -0.024
    1UNL     C6    8   0.312  -0.087  -0.008
    1UNL     C7    9   0.419  -0.111  -0.111
    1UNL     O3   10   0.393  -0.060  -0.237
    1UNL     C8   11   0.351  -0.106   0.138
    1UNL     O4   12   0.310  -0.234   0.181
    1UNL     C9   13   0.286  -0.005   0.254
    1UNL     O5   14   0.397   0.079   0.299
    1UNL    C10   15   0.164   0.066   0.198
    1UNL     O6   16   0.045   0.011   0.239
    1UNL    C11   17  -0.193  -0.041  -0.060
    1UNL    C12   18  -0.151  -0.176  -0.120
    1UNL    C13   19  -0.216  -0.298  -0.047
    1UNL    C14   20  -0.186  -0.185  -0.271
    1UNL    C15   21  -0.324   0.001  -0.073
    1UNL     O7   22  -0.425  -0.078  -0.139
    1UNL    C16   23  -0.355   0.134  -0.053
    1UNL     O8   24  -0.484   0.181  -0.089
    1UNL     H1   25  -0.271   0.427  -0.036
    1UNL     H2   26  -0.398   0.378   0.076
    1UNL     H3   27  -0.238   0.392   0.139
    1UNL     H4   28  -0.068   0.236   0.083
    1UNL     H5   29   0.122   0.183   0.011
    1UNL     H6   30   0.223  -0.151  -0.037
    1UNL     H7   31   0.512  -0.072  -0.069
    1UNL     H8   32   0.444  -0.215  -0.131
    1UNL     H9   33   0.338   0.030  -0.226
    1UNL    H10   34   0.456  -0.103   0.163
    1UNL    H11   35   0.212  -0.229   0.187
    1UNL    H12   36   0.261  -0.065   0.338
    1UNL    H13   37   0.381   0.099   0.392
    1UNL    H14   38   0.176   0.171   0.240
    1UNL    H15   39   0.050  -0.087   0.220
    1UNL    H16   40  -0.036  -0.177  -0.106
    1UNL    H17   41  -0.323  -0.294  -0.043
    1UNL    H18   42  -0.192  -0.295   0.059
    1UNL    H19   43  -0.190  -0.397  -0.089
    1UNL    H20   44  -0.145  -0.101  -0.328
    1UNL    H21   45  -0.301  -0.183  -0.287
    1UNL    H22   46  -0.129  -0.268  -0.322
    1UNL    H23   47  -0.502  -0.016  -0.168
    1UNL    H24   48  -0.506   0.266  -0.055
   0.00000   0.00000   0.00000   0.00000   0.00000   0.00000   0.00000   0.00000   0.00000
Generated with MDTraj, t= 46.0
 48
    1UNL     C1    1  -0.311   0.345   0.068
    1UNL     C2    2  -0.272   0.215   0.017
    1UNL     C3    3  -0.140   0.165   0.034
    1UNL     C4    4  -0.094   0.043  -0.010
    1UNL     O1    5   0.026  -0.024   0.027
    1UNL     C5    6   0.131   0.067   0.051
    1UNL     O2    7   0.252   0.053  -0.026
    1UNL     C6    8   0.314  -0.081  -0.009
    1UNL     C7    9   0.425  -0.110  -0.109
    1UNL     O3   10   0.380  -0.089  -0.242
    1UNL     C8   11   0.356  -0.109   0.134
    1UNL     O4   12   0.333  -0.247   0.168
    1UNL     C9   13   0.297  -0.005   0.248
    1UNL     O5   14   0.396   0.092   0.278
    1UNL    C10   15   0.161   0.068   0.205
    1UNL     O6   16   0.046   0.023   0.282
    1UNL    C11   17  -0.193  -0.034  -0.075
    1UNL    C12   18  -0.146  -0.166  -0.123
    1UNL    C13   19  -0.212  -0.265  -0.037
    1UNL    C14   20  -0.165  -0.196  -0.270
    1UNL    C15   21  -0.322   0.011  -0.098
    1UNL     O7   22  -0.416  -0.069  -0.164
    1UNL    C16   23  -0.366   0.137  -0.058
    1UNL     O8   24  -0.488   0.188  -0.099
    1UNL     H1   25  -0.307   0.423  -0.013
    1UNL     H2   26  -0.416   0.336   0.103
    1UNL     H3   27  -0.251   0.369   0.154
    1UNL     H4   28  -0.071   0.224   0.092
    1UNL     H5   29   0.093   0.163   0.028
    1UNL     H6   30   0.232  -0.152  -0.046
    1UNL     H7   31   0.516  -0.050  -0.106
    1UNL     H8   32   0.462  -0.213  -0.094
    1UNL     H9   33   0.331  -0.009  -0.245
    1UNL    H10   34   0.465  -0.093   0.142
    1UNL    H11   35   0.239  -0.275   0.164
    1UNL    H12   36   0.282  -0.061   0.337
    1UNL    H13   37   0.379   0.130   0.369
    1UNL    H14   38   0.168   0.175   0.239
    1UNL    H15   39  -0.036   0.042   0.226
    1UNL    H16   40  -0.033  -0.168  -0.098
    1UNL    H17   41  -0.315  -0.240  -0.031
    1UNL    H18   42  -0.179  -0.251   0.070
    1UNL    H19   43  -0.202  -0.369  -0.069
    1UNL    H20   44  -0.095  -0.144  -0.334
    1UNL    H21   45  -0.266  -0.170  -0.311
    1UNL    H22   46  -0.131  -0.303  -0.304
    1UNL    H23   47  -0.498  -0.025  -0.150
    1UNL    H24   48  -0.497   0.287  -0.100
   0.00000   0.00000   0.00000   0.00000   0.00000   0.00000   0.00000   0.00000   0.00000
Generated with MDTraj, t= 47.0
 48
    1UNL     C1    1  -0.298   0.342   0.074
    1UNL     C2    2  -0.267   0.199   0.029
    1UNL     C3    3  -0.132   0.153   0.044
    1UNL     C4    4  -0.089   0.024   0.003
    1UNL     O1    5   0.038  -0.025   0.037
    1UNL     C5    6   0.133   0.076   0.054
    1UNL     O2    7   0.253   0.062  -0.021
    1UNL     C6    8   0.304  -0.068   0.003
    1UNL     C7    9   0.399  -0.109  -0.111
    1UNL     O3   10   0.330  -0.091  -0.242
    1UNL     C8   11   0.347  -0.100   0.142
    1UNL     O4   12   0.301  -0.228   0.176
    1UNL     C9   13   0.304   0.004   0.247
    1UNL     O5   14   0.408   0.090   0.265
    1UNL    C10   15   0.170   0.079   0.206
    1UNL     O6   16   0.060   0.021   0.279
    1UNL    C11   17  -0.184  -0.043  -0.076
    1UNL    C12   18  -0.150  -0.182  -0.124
    1UNL    C13   19  -0.233  -0.281  -0.040
    1UNL    C14   20  -0.160  -0.195  -0.274
    1UNL    C15   21  -0.309   0.008  -0.113
    1UNL     O7   22  -0.385  -0.047  -0.213
    1UNL    C16   23  -0.351   0.132  -0.054
    1UNL     O8   24  -0.482   0.176  -0.085
    1UNL     H1   25  -0.377   0.385   0.005
    1UNL     H2   26  -0.333   0.344   0.180
    1UNL     H3   27  -0.212   0.404   0.070
    1UNL     H4   28  -0.072   0.205   0.113
    1UNL     H5   29   0.086   0.162   0.016
    1UNL     H6   30   0.208  -0.130  -0.008
    1UNL     H7   31   0.485  -0.043  -0.098
    1UNL     H8   32   0.441  -0.212  -0.112
    1UNL     H9   33   0.268  -0.020  -0.227
    1UNL    H10   34   0.459  -0.109   0.134
    1UNL    H11   35   0.203  -0.236   0.179
    1UNL    H12   36   0.294  -0.037   0.346
    1UNL    H13   37   0.381   0.187   0.263
    1UNL    H14   38   0.180   0.182   0.240
    1UNL    H15   39  -0.022   0.027   0.231
    1UNL    H16   40  -0.041  -0.197  -0.087
    1UNL    H17   41  -0.335  -0.268  -0.069
    1UNL    H18   42  -0.233  -0.254   0.071
    1UNL    H19   43  -0.201  -0.381  -0.061
    1UNL    H20   44  -0.101  -0.129  -0.336
    1UNL    H21   45  -0.265  -0.184  -0.300
    1UNL    H22   46  -0.117  -0.299  -0.311
    1UNL    H23   47  -0.451   0.025  -0.245
    1UNL    H24   48  -0.509   0.252  -0.024
   0.00000   0.00000   0.00000   0.00000   0.00000   0.00000   0.00000   0.00000   0.00000
Generated with MDTraj, t= 48.0
 48
    1UNL     C1    1  -0.310   0.330   0.092
    1UNL     C2    2  -0.263   0.207   0.022
    1UNL     C3    3  -0.139   0.162   0.052
    1UNL     C4    4  -0.095   0.035   0.008
    1UNL     O1    5   0.025  -0.019   0.053
    1UNL     C5    6   0.128   0.075   0.070
    1UNL     O2    7   0.239   0.053  -0.015
    1UNL     C6    8   0.280  -0.087  -0.000
    1UNL     C7    9   0.386  -0.123  -0.115
    1UNL     O3   10   0.329  -0.075  -0.231
    1UNL     C8   11   0.327  -0.109   0.145
    1UNL     O4   12   0.265  -0.222   0.208
    1UNL     C9   13   0.320   0.023   0.231
    1UNL     O5   14   0.423   0.115   0.204
    1UNL    C10   15   0.172   0.076   0.214
    1UNL     O6   16   0.076  -0.003   0.289
    1UNL    C11   17  -0.177  -0.043  -0.076
    1UNL    C12   18  -0.133  -0.180  -0.129
    1UNL    C13   19  -0.230  -0.281  -0.071
    1UNL    C14   20  -0.113  -0.183  -0.283
    1UNL    C15   21  -0.302   0.008  -0.107
    1UNL     O7   22  -0.391  -0.066  -0.190
    1UNL    C16   23  -0.348   0.131  -0.060
    1UNL     O8   24  -0.468   0.190  -0.109
    1UNL     H1   25  -0.413   0.362   0.069
    1UNL     H2   26  -0.302   0.313   0.202
    1UNL     H3   27  -0.250   0.418   0.073
    1UNL     H4   28  -0.081   0.227   0.125
    1UNL     H5   29   0.084   0.162   0.033
    1UNL     H6   30   0.189  -0.153  -0.011
    1UNL     H7   31   0.489  -0.087  -0.100
    1UNL     H8   32   0.391  -0.235  -0.128
    1UNL     H9   33   0.273   0.008  -0.198
    1UNL    H10   34   0.432  -0.146   0.123
    1UNL    H11   35   0.192  -0.177   0.258
    1UNL    H12   36   0.330  -0.002   0.335
    1UNL    H13   37   0.475   0.078   0.127
    1UNL    H14   38   0.165   0.176   0.251
    1UNL    H15   39   0.046  -0.078   0.232
    1UNL    H16   40  -0.032  -0.206  -0.078
    1UNL    H17   41  -0.325  -0.267  -0.122
    1UNL    H18   42  -0.253  -0.260   0.036
    1UNL    H19   43  -0.193  -0.380  -0.088
    1UNL    H20   44  -0.047  -0.103  -0.324
    1UNL    H21   45  -0.218  -0.170  -0.315
    1UNL    H22   46  -0.063  -0.276  -0.314
    1UNL    H23   47  -0.477  -0.026  -0.185
    1UNL    H24   48  -0.503   0.253  -0.035
   0.00000   0.00000   0.00000   0.00000   0.00000   0.00000   0.00000   0.00000   0.00000
Generated with MDTraj, t= 49.0
 48
    1UNL     C1    1  -0.344   0.343   0.062
    1UNL     C2    2  -0.286   0.210   0.031
    1UNL     C3    3  -0.160   0.166   0.073
    1UNL     C4    4  -0.110   0.041   0.030
    1UNL     O1    5   0.009  -0.017   0.077
    1UNL     C5    6   0.128   0.065   0.082
    1UNL     O2    7   0.232   0.028  -0.021
    1UNL     C6    8   0.288  -0.106   0.002
    1UNL     C7    9   0.399  -0.123  -0.104
    1UNL     O3   10   0.356  -0.101  -0.233
    1UNL     C8   11   0.335  -0.117   0.148
    1UNL     O4   12   0.253  -0.220   0.198
    1UNL     C9   13   0.337   0.019   0.223
    1UNL     O5   14   0.410   0.112   0.139
    1UNL    C10   15   0.191   0.069   0.231
    1UNL     O6   16   0.112   0.004   0.323
    1UNL    C11   17  -0.189  -0.037  -0.061
    1UNL    C12   18  -0.130  -0.164  -0.118
    1UNL    C13   19  -0.222  -0.280  -0.117
    1UNL    C14   20  -0.074  -0.141  -0.263
    1UNL    C15   21  -0.315   0.006  -0.099
    1UNL     O7   22  -0.390  -0.062  -0.198
    1UNL    C16   23  -0.364   0.130  -0.057
    1UNL     O8   24  -0.483   0.184  -0.108
    1UNL     H1   25  -0.438   0.354   0.012
    1UNL     H2   26  -0.358   0.354   0.171
    1UNL     H3   27  -0.280   0.425   0.023
    1UNL     H4   28  -0.098   0.226   0.130
    1UNL     H5   29   0.097   0.165   0.071
    1UNL     H6   30   0.202  -0.178  -0.001
    1UNL     H7   31   0.486  -0.056  -0.094
    1UNL     H8   32   0.437  -0.229  -0.101
    1UNL     H9   33   0.305  -0.024  -0.236
    1UNL    H10   34   0.440  -0.160   0.147
    1UNL    H11   35   0.240  -0.200   0.293
    1UNL    H12   36   0.390   0.016   0.319
    1UNL    H13   37   0.399   0.083   0.048
    1UNL    H14   38   0.200   0.167   0.268
    1UNL    H15   39   0.031  -0.026   0.268
    1UNL    H16   40  -0.038  -0.194  -0.053
    1UNL    H17   41  -0.322  -0.247  -0.156
    1UNL    H18   42  -0.245  -0.323  -0.022
    1UNL    H19   43  -0.188  -0.358  -0.184
    1UNL    H20   44   0.000  -0.054  -0.272
    1UNL    H21   45  -0.166  -0.120  -0.320
    1UNL    H22   46  -0.027  -0.228  -0.293
    1UNL    H23   47  -0.450   0.005  -0.241
    1UNL    H24   48  -0.469   0.278  -0.149
   0.00000   0.00000   0.00000   0.00000   0.00000   0.00000   0.00000   0.00000   0.00000
Generated with MDTraj, t= 50.0
 48
    1UNL     C1    1  -0.335   0.334   0.077
    1UNL     C2    2  -0.294   0.197   0.042
    1UNL     C3    3  -0.174   0.146   0.090
    1UNL     C4    4  -0.127   0.021   0.046
    1UNL     O1    5  -0.002  -0.025   0.101
    1UNL     C5    6   0.112   0.056   0.077
    1UNL     O2    7   0.194   0.007  -0.037
    1UNL     C6    8   0.277  -0.108  -0.003
    1UNL     C7    9   0.381  -0.120  -0.108
    1UNL     O3   10   0.329  -0.110  -0.234
    1UNL     C8   11   0.333  -0.121   0.140
    1UNL     O4   12   0.252  -0.205   0.219
    1UNL     C9   13   0.340   0.015   0.207
    1UNL     O5   14   0.437   0.106   0.147
    1UNL    C10   15   0.194   0.083   0.209
    1UNL     O6   16   0.120   0.046   0.320
    1UNL    C11   17  -0.192  -0.045  -0.057
    1UNL    C12   18  -0.117  -0.163  -0.115
    1UNL    C13   19  -0.209  -0.279  -0.140
    1UNL    C14   20  -0.041  -0.123  -0.241
    1UNL    C15   21  -0.309   0.008  -0.110
    1UNL     O7   22  -0.370  -0.050  -0.217
    1UNL    C16   23  -0.358   0.133  -0.057
    1UNL     O8   24  -0.468   0.194  -0.124
    1UNL     H1   25  -0.430   0.332   0.125
    1UNL     H2   26  -0.261   0.387   0.138
    1UNL     H3   27  -0.350   0.390  -0.021
    1UNL     H4   28  -0.108   0.209   0.153
    1UNL     H5   29   0.075   0.152   0.051
    1UNL     H6   30   0.205  -0.190  -0.018
    1UNL     H7   31   0.455  -0.042  -0.094
    1UNL     H8   32   0.431  -0.222  -0.113
    1UNL     H9   33   0.267  -0.028  -0.252
    1UNL    H10   34   0.433  -0.174   0.135
    1UNL    H11   35   0.262  -0.174   0.312
    1UNL    H12   36   0.374  -0.004   0.313
    1UNL    H13   37   0.430   0.094   0.051
    1UNL    H14   38   0.200   0.188   0.220
    1UNL    H15   39   0.075  -0.033   0.289
    1UNL    H16   40  -0.038  -0.194  -0.035
    1UNL    H17   41  -0.281  -0.254  -0.223
    1UNL    H18   42  -0.273  -0.290  -0.058
    1UNL    H19   43  -0.160  -0.376  -0.160
    1UNL    H20   44   0.040  -0.046  -0.215
    1UNL    H21   45  -0.109  -0.072  -0.310
    1UNL    H22   46   0.001  -0.206  -0.286
    1UNL    H23   47  -0.454  -0.005  -0.240
    1UNL    H24   48  -0.531   0.241  -0.067
   0.00000   0.00000   0.00000   0.00000   0.00000   0.00000   0.00000   0.00000   0.00000
Generated with MDTraj, t= 51.0
 48
    1UNL     C1    1  -0.333   0.300   0.132
    1UNL     C2    2  -0.283   0.186   0.057
    1UNL     C3    3  -0.163   0.135   0.098
    1UNL     C4    4  -0.108   0.021   0.044
    1UNL     O1    5   0.018  -0.022   0.097
    1UNL     C5    6   0.116   0.076   0.072
    1UNL     O2    7   0.200   0.035  -0.037
    1UNL     C6    8   0.238  -0.100  -0.003
    1UNL     C7    9   0.329  -0.158  -0.107
    1UNL     O3   10   0.293  -0.115  -0.234
    1UNL     C8   11   0.304  -0.116   0.138
    1UNL     O4   12   0.242  -0.204   0.227
    1UNL     C9   13   0.322   0.023   0.201
    1UNL     O5   14   0.422   0.096   0.131
    1UNL    C10   15   0.187   0.112   0.201
    1UNL     O6   16   0.108   0.079   0.316
    1UNL    C11   17  -0.167  -0.046  -0.063
    1UNL    C12   18  -0.110  -0.170  -0.112
    1UNL    C13   19  -0.224  -0.274  -0.156
    1UNL    C14   20  -0.015  -0.133  -0.228
    1UNL    C15   21  -0.284   0.008  -0.114
    1UNL     O7   22  -0.332  -0.037  -0.236
    1UNL    C16   23  -0.344   0.116  -0.055
    1UNL     O8   24  -0.445   0.180  -0.130
    1UNL     H1   25  -0.392   0.268   0.218
    1UNL     H2   26  -0.254   0.367   0.163
    1UNL     H3   27  -0.407   0.359   0.073
    1UNL     H4   28  -0.111   0.184   0.180
    1UNL     H5   29   0.060   0.156   0.025
    1UNL     H6   30   0.152  -0.167  -0.001
    1UNL     H7   31   0.425  -0.109  -0.098
    1UNL     H8   32   0.338  -0.268  -0.091
    1UNL     H9   33   0.272  -0.023  -0.235
    1UNL    H10   34   0.402  -0.168   0.115
    1UNL    H11   35   0.303  -0.210   0.305
    1UNL    H12   36   0.359   0.007   0.306
    1UNL    H13   37   0.394   0.107   0.035
    1UNL    H14   38   0.200   0.217   0.201
    1UNL    H15   39   0.086  -0.020   0.320
    1UNL    H16   40  -0.049  -0.214  -0.024
    1UNL    H17   41  -0.274  -0.236  -0.245
    1UNL    H18   42  -0.298  -0.278  -0.080
    1UNL    H19   43  -0.183  -0.376  -0.174
    1UNL    H20   44   0.056  -0.053  -0.191
    1UNL    H21   45  -0.054  -0.084  -0.317
    1UNL    H22   46   0.038  -0.215  -0.268
    1UNL    H23   47  -0.403   0.020  -0.265
    1UNL    H24   48  -0.447   0.271  -0.107
   0.00000   0.00000   0.00000   0.00000   0.00000   0.00000   0.00000   0.00000   0.00000
Generated with MDTraj, t= 52.0
 48
    1UNL     C1    1  -0.373   0.275   0.141
    1UNL     C2    2  -0.306   0.170   0.064
    1UNL     C3    3  -0.180   0.130   0.110
    1UNL     C4    4  -0.114   0.023   0.047
    1UNL     O1    5   0.016  -0.020   0.089
    1UNL     C5    6   0.127   0.077   0.068
    1UNL     O2    7   0.214   0.019  -0.030
    1UNL     C6    8   0.260  -0.113   0.010
    1UNL     C7    9   0.344  -0.167  -0.112
    1UNL     O3   10   0.270  -0.145  -0.233
    1UNL     C8   11   0.324  -0.111   0.158
    1UNL     O4   12   0.221  -0.177   0.232
    1UNL     C9   13   0.343   0.035   0.203
    1UNL     O5   14   0.441   0.099   0.122
    1UNL    C10   15   0.207   0.112   0.203
    1UNL     O6   16   0.129   0.066   0.324
    1UNL    C11   17  -0.167  -0.034  -0.070
    1UNL    C12   18  -0.106  -0.159  -0.124
    1UNL    C13   19  -0.221  -0.258  -0.149
    1UNL    C14   20  -0.019  -0.138  -0.247
    1UNL    C15   21  -0.283   0.016  -0.128
    1UNL     O7   22  -0.341  -0.019  -0.245
    1UNL    C16   23  -0.349   0.125  -0.061
    1UNL     O8   24  -0.450   0.186  -0.139
    1UNL     H1   25  -0.381   0.243   0.249
    1UNL     H2   26  -0.321   0.368   0.130
    1UNL     H3   27  -0.476   0.282   0.107
    1UNL     H4   28  -0.142   0.174   0.198
    1UNL     H5   29   0.083   0.170   0.030
    1UNL     H6   30   0.172  -0.175   0.028
    1UNL     H7   31   0.440  -0.120  -0.111
    1UNL     H8   32   0.354  -0.277  -0.114
    1UNL     H9   33   0.254  -0.042  -0.237
    1UNL    H10   34   0.419  -0.165   0.168
    1UNL    H11   35   0.243  -0.165   0.327
    1UNL    H12   36   0.392   0.029   0.307
    1UNL    H13   37   0.404   0.146   0.045
    1UNL    H14   38   0.231   0.216   0.225
    1UNL    H15   39   0.074  -0.009   0.302
    1UNL    H16   40  -0.034  -0.203  -0.045
    1UNL    H17   41  -0.310  -0.214  -0.189
    1UNL    H18   42  -0.247  -0.304  -0.053
    1UNL    H19   43  -0.188  -0.342  -0.213
    1UNL    H20   44   0.024  -0.043  -0.234
    1UNL    H21   45  -0.058  -0.121  -0.346
    1UNL    H22   46   0.057  -0.215  -0.270
    1UNL    H23   47  -0.414   0.053  -0.264
    1UNL    H24   48  -0.476   0.269  -0.099
   0.00000   0.00000   0.00000   0.00000   0.00000   0.00000   0.00000   0.00000   0.00000
Generated with MDTraj, t= 53.0
 48
    1UNL     C1    1  -0.398   0.294   0.126
    1UNL     C2    2  -0.309   0.188   0.060
    1UNL     C3    3  -0.186   0.139   0.109
    1UNL     C4    4  -0.119   0.032   0.048
    1UNL     O1    5   0.000  -0.023   0.109
    1UNL     C5    6   0.115   0.055   0.071
    1UNL     O2    7   0.208  -0.002  -0.026
    1UNL     C6    8   0.265  -0.131   0.012
    1UNL     C7    9   0.375  -0.173  -0.089
    1UNL     O3   10   0.325  -0.179  -0.217
    1UNL     C8   11   0.335  -0.115   0.155
    1UNL     O4   12   0.259  -0.201   0.249
    1UNL     C9   13   0.340   0.037   0.190
    1UNL     O5   14   0.423   0.106   0.101
    1UNL    C10   15   0.197   0.100   0.198
    1UNL     O6   16   0.123   0.061   0.317
    1UNL    C11   17  -0.170  -0.015  -0.071
    1UNL    C12   18  -0.095  -0.126  -0.139
    1UNL    C13   19  -0.177  -0.259  -0.127
    1UNL    C14   20  -0.070  -0.100  -0.290
    1UNL    C15   21  -0.287   0.035  -0.127
    1UNL     O7   22  -0.341  -0.005  -0.246
    1UNL    C16   23  -0.364   0.130  -0.053
    1UNL     O8   24  -0.473   0.169  -0.125
    1UNL     H1   25  -0.339   0.360   0.199
    1UNL     H2   26  -0.454   0.354   0.055
    1UNL     H3   27  -0.466   0.244   0.191
    1UNL     H4   28  -0.134   0.190   0.193
    1UNL     H5   29   0.071   0.143   0.017
    1UNL     H6   30   0.187  -0.208   0.016
    1UNL     H7   31   0.467  -0.117  -0.091
    1UNL     H8   32   0.397  -0.279  -0.066
    1UNL     H9   33   0.294  -0.083  -0.240
    1UNL    H10   34   0.437  -0.149   0.144
    1UNL    H11   35   0.274  -0.194   0.346
    1UNL    H12   36   0.392   0.043   0.291
    1UNL    H13   37   0.374   0.113   0.012
    1UNL    H14   38   0.207   0.210   0.197
    1UNL    H15   39   0.111  -0.040   0.303
    1UNL    H16   40   0.008  -0.141  -0.089
    1UNL    H17   41  -0.255  -0.280  -0.196
    1UNL    H18   42  -0.225  -0.263  -0.024
    1UNL    H19   43  -0.116  -0.348  -0.127
    1UNL    H20   44  -0.000  -0.030  -0.314
    1UNL    H21   45  -0.154  -0.051  -0.335
    1UNL    H22   46  -0.064  -0.197  -0.350
    1UNL    H23   47  -0.414   0.053  -0.262
    1UNL    H24   48  -0.508   0.256  -0.096
   0.00000   0.00000   0.00000   0.00000   0.00000   0.00000   0.00000   0.00000   0.00000
Generated with MDTraj, t= 54.0
 48
    1UNL     C1    1  -0.371   0.299   0.126
    1UNL     C2    2  -0.295   0.191   0.062
    1UNL     C3    3  -0.181   0.134   0.108
    1UNL     C4    4  -0.124   0.025   0.041
    1UNL     O1    5  -0.008  -0.036   0.092
    1UNL     C5    6   0.108   0.041   0.057
    1UNL     O2    7   0.206  -0.015  -0.030
    1UNL     C6    8   0.265  -0.130   0.030
    1UNL     C7    9   0.367  -0.182  -0.063
    1UNL     O3   10   0.314  -0.190  -0.194
    1UNL     C8   11   0.335  -0.107   0.166
    1UNL     O4   12   0.273  -0.179   0.277
    1UNL     C9   13   0.335   0.045   0.194
    1UNL     O5   14   0.411   0.112   0.094
    1UNL    C10   15   0.184   0.087   0.188
    1UNL     O6   16   0.113   0.032   0.294
    1UNL    C11   17  -0.164  -0.008  -0.090
    1UNL    C12   18  -0.083  -0.107  -0.171
    1UNL    C13   19  -0.113  -0.249  -0.129
    1UNL    C14   20  -0.089  -0.088  -0.326
    1UNL    C15   21  -0.296   0.038  -0.122
    1UNL     O7   22  -0.361  -0.002  -0.238
    1UNL    C16   23  -0.362   0.137  -0.051
    1UNL     O8   24  -0.485   0.175  -0.097
    1UNL     H1   25  -0.304   0.373   0.177
    1UNL     H2   26  -0.435   0.357   0.057
    1UNL     H3   27  -0.434   0.263   0.205
    1UNL     H4   28  -0.127   0.176   0.184
    1UNL     H5   29   0.070   0.126  -0.010
    1UNL     H6   30   0.177  -0.195   0.041
    1UNL     H7   31   0.447  -0.109  -0.069
    1UNL     H8   32   0.410  -0.280  -0.032
    1UNL     H9   33   0.279  -0.106  -0.212
    1UNL    H10   34   0.440  -0.128   0.157
    1UNL    H11   35   0.316  -0.161   0.364
    1UNL    H12   36   0.374   0.067   0.298
    1UNL    H13   37   0.385   0.069   0.013
    1UNL    H14   38   0.180   0.200   0.191
    1UNL    H15   39   0.089  -0.056   0.257
    1UNL    H16   40   0.029  -0.099  -0.155
    1UNL    H17   41  -0.216  -0.282  -0.129
    1UNL    H18   42  -0.070  -0.263  -0.024
    1UNL    H19   43  -0.060  -0.319  -0.190
    1UNL    H20   44  -0.094   0.016  -0.337
    1UNL    H21   45  -0.179  -0.124  -0.368
    1UNL    H22   46  -0.005  -0.148  -0.371
    1UNL    H23   47  -0.454   0.036  -0.229
    1UNL    H24   48  -0.539   0.206  -0.016
   0.00000   0.00000   0.00000   0.00000   0.00000   0.00000   0.00000   0.00000   0.00000
Generated with MDTraj, t= 55.0
 48
    1UNL     C1    1  -0.353   0.278   0.157
    1UNL     C2    2  -0.291   0.173   0.068
    1UNL     C3    3  -0.173   0.109   0.104
    1UNL     C4    4  -0.113   0.015   0.023
    1UNL     O1    5   0.013  -0.038   0.058
    1UNL     C5    6   0.122   0.049   0.050
    1UNL     O2    7   0.223  -0.007  -0.034
    1UNL     C6    8   0.275  -0.121   0.032
    1UNL     C7    9   0.351  -0.223  -0.053
    1UNL     O3   10   0.278  -0.232  -0.179
    1UNL     C8   11   0.338  -0.091   0.171
    1UNL     O4   12   0.275  -0.168   0.271
    1UNL     C9   13   0.329   0.060   0.218
    1UNL     O5   14   0.425   0.140   0.137
    1UNL    C10   15   0.175   0.103   0.191
    1UNL     O6   16   0.101   0.052   0.295
    1UNL    C11   17  -0.168  -0.012  -0.103
    1UNL    C12   18  -0.085  -0.096  -0.202
    1UNL    C13   19  -0.089  -0.238  -0.146
    1UNL    C14   20  -0.129  -0.094  -0.355
    1UNL    C15   21  -0.297   0.037  -0.133
    1UNL     O7   22  -0.379  -0.004  -0.235
    1UNL    C16   23  -0.359   0.135  -0.044
    1UNL     O8   24  -0.483   0.182  -0.084
    1UNL     H1   25  -0.316   0.271   0.257
    1UNL     H2   26  -0.333   0.383   0.122
    1UNL     H3   27  -0.463   0.269   0.167
    1UNL     H4   28  -0.115   0.159   0.185
    1UNL     H5   29   0.091   0.142  -0.011
    1UNL     H6   30   0.179  -0.171   0.055
    1UNL     H7   31   0.450  -0.185  -0.073
    1UNL     H8   32   0.362  -0.323  -0.003
    1UNL     H9   33   0.265  -0.133  -0.214
    1UNL    H10   34   0.441  -0.118   0.167
    1UNL    H11   35   0.303  -0.152   0.364
    1UNL    H12   36   0.345   0.070   0.328
    1UNL    H13   37   0.380   0.148   0.049
    1UNL    H14   38   0.175   0.217   0.211
    1UNL    H15   39   0.108  -0.047   0.288
    1UNL    H16   40   0.022  -0.068  -0.202
    1UNL    H17   41  -0.192  -0.276  -0.164
    1UNL    H18   42  -0.061  -0.241  -0.038
    1UNL    H19   43  -0.024  -0.300  -0.206
    1UNL    H20   44  -0.176  -0.001  -0.382
    1UNL    H21   45  -0.195  -0.173  -0.382
    1UNL    H22   46  -0.043  -0.123  -0.410
    1UNL    H23   47  -0.455   0.056  -0.245
    1UNL    H24   48  -0.492   0.271  -0.033
   0.00000   0.00000   0.00000   0.00000   0.00000   0.00000   0.00000   0.00000   0.00000
Generated with MDTraj, t= 56.0
 48
    1UNL     C1    1  -0.364   0.232   0.195
    1UNL     C2    2  -0.288   0.164   0.083
    1UNL     C3    3  -0.156   0.119   0.102
    1UNL     C4    4  -0.103   0.030   0.012
    1UNL     O1    5   0.030  -0.028   0.027
    1UNL     C5    6   0.144   0.065   0.019
    1UNL     O2    7   0.264  -0.001  -0.027
    1UNL     C6    8   0.281  -0.126   0.045
    1UNL     C7    9   0.349  -0.233  -0.044
    1UNL     O3   10   0.263  -0.263  -0.152
    1UNL     C8   11   0.351  -0.090   0.180
    1UNL     O4   12   0.297  -0.178   0.271
    1UNL     C9   13   0.306   0.060   0.216
    1UNL     O5   14   0.414   0.142   0.164
    1UNL    C10   15   0.167   0.113   0.167
    1UNL     O6   16   0.059   0.084   0.257
    1UNL    C11   17  -0.171  -0.009  -0.106
    1UNL    C12   18  -0.104  -0.104  -0.207
    1UNL    C13   19  -0.090  -0.248  -0.157
    1UNL    C14   20  -0.153  -0.101  -0.348
    1UNL    C15   21  -0.299   0.046  -0.132
    1UNL     O7   22  -0.370   0.025  -0.247
    1UNL    C16   23  -0.358   0.132  -0.035
    1UNL     O8   24  -0.474   0.184  -0.079
    1UNL     H1   25  -0.325   0.194   0.285
    1UNL     H2   26  -0.356   0.343   0.190
    1UNL     H3   27  -0.474   0.209   0.197
    1UNL     H4   28  -0.110   0.146   0.193
    1UNL     H5   29   0.117   0.146  -0.056
    1UNL     H6   30   0.181  -0.165   0.073
    1UNL     H7   31   0.445  -0.213  -0.093
    1UNL     H8   32   0.367  -0.327   0.016
    1UNL     H9   33   0.225  -0.181  -0.187
    1UNL    H10   34   0.460  -0.090   0.185
    1UNL    H11   35   0.317  -0.154   0.364
    1UNL    H12   36   0.301   0.068   0.324
    1UNL    H13   37   0.423   0.170   0.068
    1UNL    H14   38   0.173   0.229   0.171
    1UNL    H15   39   0.042  -0.012   0.254
    1UNL    H16   40  -0.002  -0.070  -0.215
    1UNL    H17   41  -0.194  -0.292  -0.162
    1UNL    H18   42  -0.054  -0.244  -0.056
    1UNL    H19   43  -0.026  -0.314  -0.219
    1UNL    H20   44  -0.142  -0.008  -0.405
    1UNL    H21   45  -0.255  -0.129  -0.359
    1UNL    H22   46  -0.109  -0.178  -0.396
    1UNL    H23   47  -0.455   0.075  -0.240
    1UNL    H24   48  -0.520   0.228  -0.001
   0.00000   0.00000   0.00000   0.00000   0.00000   0.00000   0.00000   0.00000   0.00000
Generated with MDTraj, t= 57.0
 48
    1UNL     C1    1  -0.355   0.237   0.202
    1UNL     C2    2  -0.292   0.163   0.085
    1UNL     C3    3  -0.163   0.106   0.095
    1UNL     C4    4  -0.105   0.030  -0.003
    1UNL     O1    5   0.019  -0.039   0.018
    1UNL     C5    6   0.138   0.050   0.019
    1UNL     O2    7   0.244  -0.022  -0.041
    1UNL     C6    8   0.278  -0.130   0.051
    1UNL     C7    9   0.364  -0.238  -0.030
    1UNL     O3   10   0.302  -0.269  -0.151
    1UNL     C8   11   0.345  -0.079   0.189
    1UNL     O4   12   0.293  -0.153   0.301
    1UNL     C9   13   0.320   0.070   0.214
    1UNL     O5   14   0.428   0.149   0.161
    1UNL    C10   15   0.176   0.103   0.167
    1UNL     O6   16   0.075   0.059   0.258
    1UNL    C11   17  -0.168   0.009  -0.128
    1UNL    C12   18  -0.107  -0.092  -0.215
    1UNL    C13   19  -0.115  -0.226  -0.150
    1UNL    C14   20  -0.163  -0.098  -0.358
    1UNL    C15   21  -0.298   0.064  -0.141
    1UNL     O7   22  -0.368   0.044  -0.257
    1UNL    C16   23  -0.363   0.128  -0.032
    1UNL     O8   24  -0.494   0.164  -0.065
    1UNL     H1   25  -0.282   0.304   0.242
    1UNL     H2   26  -0.447   0.290   0.176
    1UNL     H3   27  -0.382   0.171   0.290
    1UNL     H4   28  -0.109   0.117   0.185
    1UNL     H5   29   0.120   0.132  -0.057
    1UNL     H6   30   0.181  -0.179   0.070
    1UNL     H7   31   0.467  -0.207  -0.044
    1UNL     H8   32   0.368  -0.343   0.009
    1UNL     H9   33   0.252  -0.194  -0.175
    1UNL    H10   34   0.455  -0.092   0.195
    1UNL    H11   35   0.338  -0.126   0.385
    1UNL    H12   36   0.319   0.076   0.321
    1UNL    H13   37   0.428   0.139   0.066
    1UNL    H14   38   0.172   0.220   0.167
    1UNL    H15   39   0.092  -0.040   0.273
    1UNL    H16   40  -0.005  -0.065  -0.223
    1UNL    H17   41  -0.223  -0.256  -0.140
    1UNL    H18   42  -0.076  -0.229  -0.051
    1UNL    H19   43  -0.074  -0.312  -0.213
    1UNL    H20   44  -0.147  -0.015  -0.426
    1UNL    H21   45  -0.267  -0.109  -0.354
    1UNL    H22   46  -0.134  -0.184  -0.409
    1UNL    H23   47  -0.455   0.094  -0.242
    1UNL    H24   48  -0.531   0.232  -0.003
   0.00000   0.00000   0.00000   0.00000   0.00000   0.00000   0.00000   0.00000   0.00000
Generated with MDTraj, t= 58.0
 48
    1UNL     C1    1  -0.339   0.253   0.183
    1UNL     C2    2  -0.289   0.165   0.084
    1UNL     C3    3  -0.168   0.107   0.100
    1UNL     C4    4  -0.109   0.019   0.008
    1UNL     O1    5   0.014  -0.048   0.025
    1UNL     C5    6   0.125   0.040   0.026
    1UNL     O2    7   0.236  -0.022  -0.029
    1UNL     C6    8   0.279  -0.133   0.054
    1UNL     C7    9   0.391  -0.218  -0.012
    1UNL     O3   10   0.354  -0.268  -0.139
    1UNL     C8   11   0.334  -0.081   0.192
    1UNL     O4   12   0.277  -0.145   0.303
    1UNL     C9   13   0.315   0.074   0.200
    1UNL     O5   14   0.396   0.128   0.096
    1UNL    C10   15   0.159   0.096   0.172
    1UNL     O6   16   0.084   0.038   0.279
    1UNL    C11   17  -0.173  -0.001  -0.116
    1UNL    C12   18  -0.112  -0.094  -0.216
    1UNL    C13   19  -0.123  -0.237  -0.182
    1UNL    C14   20  -0.153  -0.057  -0.367
    1UNL    C15   21  -0.300   0.051  -0.131
    1UNL     O7   22  -0.376   0.031  -0.241
    1UNL    C16   23  -0.358   0.140  -0.029
    1UNL     O8   24  -0.489   0.192  -0.056
    1UNL     H1   25  -0.363   0.348   0.133
    1UNL     H2   26  -0.422   0.209   0.236
    1UNL     H3   27  -0.264   0.283   0.260
    1UNL     H4   28  -0.101   0.131   0.186
    1UNL     H5   29   0.110   0.127  -0.042
    1UNL     H6   30   0.198  -0.206   0.064
    1UNL     H7   31   0.484  -0.164  -0.024
    1UNL     H8   32   0.413  -0.301   0.056
    1UNL     H9   33   0.289  -0.192  -0.174
    1UNL    H10   34   0.444  -0.106   0.191
    1UNL    H11   35   0.329  -0.122   0.383
    1UNL    H12   36   0.347   0.120   0.291
    1UNL    H13   37   0.388   0.063   0.023
    1UNL    H14   38   0.137   0.211   0.179
    1UNL    H15   39   0.104  -0.055   0.276
    1UNL    H16   40  -0.009  -0.071  -0.205
    1UNL    H17   41  -0.214  -0.262  -0.126
    1UNL    H18   42  -0.046  -0.273  -0.114
    1UNL    H19   43  -0.129  -0.302  -0.276
    1UNL    H20   44  -0.170   0.045  -0.375
    1UNL    H21   45  -0.242  -0.107  -0.388
    1UNL    H22   46  -0.077  -0.087  -0.439
    1UNL    H23   47  -0.452   0.089  -0.243
    1UNL    H24   48  -0.546   0.119  -0.075
   0.00000   0.00000   0.00000   0.00000   0.00000   0.00000   0.00000   0.00000   0.00000
Generated with MDTraj, t= 59.0
 48
    1UNL     C1    1  -0.323   0.277   0.182
    1UNL     C2    2  -0.281   0.168   0.092
    1UNL     C3    3  -0.169   0.093   0.111
    1UNL     C4    4  -0.114   0.002   0.020
    1UNL     O1    5   0.009  -0.075   0.042
    1UNL     C5    6   0.124   0.009   0.017
    1UNL     O2    7   0.245  -0.052  -0.034
    1UNL     C6    8   0.308  -0.143   0.055
    1UNL     C7    9   0.416  -0.213  -0.016
    1UNL     O3   10   0.365  -0.258  -0.143
    1UNL     C8   11   0.332  -0.072   0.189
    1UNL     O4   12   0.267  -0.142   0.293
    1UNL     C9   13   0.296   0.075   0.189
    1UNL     O5   14   0.390   0.150   0.111
    1UNL    C10   15   0.147   0.091   0.148
    1UNL     O6   16   0.062   0.062   0.258
    1UNL    C11   17  -0.181  -0.014  -0.102
    1UNL    C12   18  -0.115  -0.096  -0.205
    1UNL    C13   19  -0.155  -0.250  -0.208
    1UNL    C14   20  -0.125  -0.025  -0.343
    1UNL    C15   21  -0.305   0.046  -0.122
    1UNL     O7   22  -0.376   0.032  -0.238
    1UNL    C16   23  -0.356   0.139  -0.027
    1UNL     O8   24  -0.475   0.205  -0.056
    1UNL     H1   25  -0.436   0.286   0.191
    1UNL     H2   26  -0.274   0.256   0.275
    1UNL     H3   27  -0.296   0.376   0.142
    1UNL     H4   28  -0.104   0.119   0.187
    1UNL     H5   29   0.104   0.075  -0.067
    1UNL     H6   30   0.235  -0.221   0.078
    1UNL     H7   31   0.484  -0.131  -0.038
    1UNL     H8   32   0.470  -0.284   0.047
    1UNL     H9   33   0.285  -0.209  -0.157
    1UNL    H10   34   0.443  -0.073   0.214
    1UNL    H11   35   0.277  -0.095   0.379
    1UNL    H12   36   0.315   0.119   0.285
    1UNL    H13   37   0.392   0.109   0.021
    1UNL    H14   38   0.108   0.201   0.126
    1UNL    H15   39   0.056  -0.038   0.265
    1UNL    H16   40  -0.016  -0.095  -0.167
    1UNL    H17   41  -0.232  -0.276  -0.280
    1UNL    H18   42  -0.199  -0.266  -0.107
    1UNL    H19   43  -0.067  -0.320  -0.227
    1UNL    H20   44  -0.091   0.071  -0.338
    1UNL    H21   45  -0.226  -0.032  -0.369
    1UNL    H22   46  -0.066  -0.084  -0.415
    1UNL    H23   47  -0.470   0.073  -0.239
    1UNL    H24   48  -0.546   0.146  -0.074
   0.00000   0.00000   0.00000   0.00000   0.00000   0.00000   0.00000   0.00000   0.00000
Generated with MDTraj, t= 60.0
 48
    1UNL     C1    1  -0.340   0.252   0.193
    1UNL     C2    2  -0.280   0.159   0.087
    1UNL     C3    3  -0.161   0.092   0.107
    1UNL     C4    4  -0.112   0.000   0.015
    1UNL     O1    5   0.012  -0.062   0.044
    1UNL     C5    6   0.123   0.036   0.028
    1UNL     O2    7   0.228  -0.033  -0.034
    1UNL     C6    8   0.299  -0.126   0.055
    1UNL     C7    9   0.406  -0.216  -0.006
    1UNL     O3   10   0.381  -0.247  -0.135
    1UNL     C8   11   0.340  -0.072   0.194
    1UNL     O4   12   0.258  -0.139   0.290
    1UNL     C9   13   0.317   0.080   0.192
    1UNL     O5   14   0.393   0.139   0.090
    1UNL    C10   15   0.166   0.103   0.166
    1UNL     O6   16   0.085   0.060   0.266
    1UNL    C11   17  -0.184  -0.025  -0.103
    1UNL    C12   18  -0.129  -0.125  -0.200
    1UNL    C13   19  -0.239  -0.223  -0.242
    1UNL    C14   20  -0.082  -0.053  -0.326
    1UNL    C15   21  -0.303   0.046  -0.130
    1UNL     O7   22  -0.370   0.022  -0.243
    1UNL    C16   23  -0.350   0.138  -0.031
    1UNL     O8   24  -0.469   0.204  -0.063
    1UNL     H1   25  -0.375   0.195   0.285
    1UNL     H2   26  -0.257   0.314   0.220
    1UNL     H3   27  -0.430   0.308   0.162
    1UNL     H4   28  -0.101   0.113   0.196
    1UNL     H5   29   0.101   0.114  -0.042
    1UNL     H6   30   0.218  -0.200   0.069
    1UNL     H7   31   0.506  -0.173   0.008
    1UNL     H8   32   0.411  -0.314   0.044
    1UNL     H9   33   0.313  -0.193  -0.177
    1UNL    H10   34   0.448  -0.101   0.218
    1UNL    H11   35   0.257  -0.102   0.381
    1UNL    H12   36   0.356   0.122   0.284
    1UNL    H13   37   0.357   0.109   0.006
    1UNL    H14   38   0.134   0.216   0.164
    1UNL    H15   39   0.087  -0.036   0.267
    1UNL    H16   40  -0.056  -0.179  -0.144
    1UNL    H17   41  -0.335  -0.188  -0.204
    1UNL    H18   42  -0.220  -0.321  -0.185
    1UNL    H19   43  -0.242  -0.233  -0.351
    1UNL    H20   44   0.015  -0.015  -0.315
    1UNL    H21   45  -0.157   0.016  -0.352
    1UNL    H22   46  -0.075  -0.121  -0.409
    1UNL    H23   47  -0.419   0.099  -0.274
    1UNL    H24   48  -0.550   0.147  -0.066
   0.00000   0.00000   0.00000   0.00000   0.00000   0.00000   0.00000   0.00000   0.00000
Generated with MDTraj, t= 61.0
 48
    1UNL     C1    1  -0.339   0.246   0.193
    1UNL     C2    2  -0.282   0.160   0.083
    1UNL     C3    3  -0.163   0.094   0.112
    1UNL     C4    4  -0.119   0.006   0.018
    1UNL     O1    5   0.010  -0.057   0.026
    1UNL     C5    6   0.131   0.036   0.015
    1UNL     O2    7   0.246  -0.025  -0.034
    1UNL     C6    8   0.281  -0.132   0.059
    1UNL     C7    9   0.394  -0.204  -0.018
    1UNL     O3   10   0.351  -0.241  -0.144
    1UNL     C8   11   0.338  -0.076   0.194
    1UNL     O4   12   0.282  -0.145   0.303
    1UNL     C9   13   0.313   0.076   0.192
    1UNL     O5   14   0.419   0.141   0.121
    1UNL    C10   15   0.165   0.108   0.152
    1UNL     O6   16   0.074   0.074   0.254
    1UNL    C11   17  -0.194  -0.032  -0.102
    1UNL    C12   18  -0.140  -0.141  -0.193
    1UNL    C13   19  -0.255  -0.219  -0.253
    1UNL    C14   20  -0.036  -0.089  -0.301
    1UNL    C15   21  -0.305   0.048  -0.135
    1UNL     O7   22  -0.362   0.050  -0.261
    1UNL    C16   23  -0.360   0.131  -0.029
    1UNL     O8   24  -0.481   0.192  -0.039
    1UNL     H1   25  -0.282   0.239   0.290
    1UNL     H2   26  -0.321   0.350   0.163
    1UNL     H3   27  -0.441   0.226   0.223
    1UNL     H4   28  -0.111   0.109   0.206
    1UNL     H5   29   0.111   0.111  -0.059
    1UNL     H6   30   0.193  -0.194   0.080
    1UNL     H7   31   0.489  -0.148  -0.037
    1UNL     H8   32   0.427  -0.289   0.043
    1UNL     H9   33   0.271  -0.180  -0.170
    1UNL    H10   34   0.450  -0.084   0.194
    1UNL    H11   35   0.329  -0.114   0.384
    1UNL    H12   36   0.336   0.116   0.293
    1UNL    H13   37   0.414   0.106   0.028
    1UNL    H14   38   0.152   0.224   0.154
    1UNL    H15   39   0.061  -0.026   0.259
    1UNL    H16   40  -0.091  -0.210  -0.126
    1UNL    H17   41  -0.268  -0.195  -0.358
    1UNL    H18   42  -0.359  -0.197  -0.207
    1UNL    H19   43  -0.233  -0.324  -0.256
    1UNL    H20   44   0.036  -0.022  -0.258
    1UNL    H21   45  -0.084  -0.049  -0.387
    1UNL    H22   46   0.026  -0.162  -0.339
    1UNL    H23   47  -0.442   0.101  -0.253
    1UNL    H24   48  -0.545   0.140  -0.102
   0.00000   0.00000   0.00000   0.00000   0.00000   0.00000   0.00000   0.00000   0.00000
Generated with MDTraj, t= 62.0
 48
    1UNL     C1    1  -0.350   0.256   0.178
    1UNL     C2    2  -0.277   0.179   0.080
    1UNL     C3    3  -0.155   0.115   0.099
    1UNL     C4    4  -0.105   0.016   0.018
    1UNL     O1    5   0.020  -0.052   0.035
    1UNL     C5    6   0.129   0.041   0.026
    1UNL     O2    7   0.237  -0.015  -0.041
    1UNL     C6    8   0.284  -0.125   0.036
    1UNL     C7    9   0.388  -0.220  -0.034
    1UNL     O3   10   0.326  -0.271  -0.156
    1UNL     C8   11   0.333  -0.077   0.177
    1UNL     O4   12   0.269  -0.147   0.279
    1UNL     C9   13   0.306   0.080   0.199
    1UNL     O5   14   0.388   0.160   0.122
    1UNL    C10   15   0.155   0.108   0.172
    1UNL     O6   16   0.078   0.046   0.267
    1UNL    C11   17  -0.174  -0.030  -0.093
    1UNL    C12   18  -0.123  -0.144  -0.182
    1UNL    C13   19  -0.240  -0.205  -0.258
    1UNL    C14   20  -0.008  -0.085  -0.264
    1UNL    C15   21  -0.295   0.045  -0.115
    1UNL     O7   22  -0.369   0.016  -0.230
    1UNL    C16   23  -0.350   0.140  -0.032
    1UNL     O8   24  -0.478   0.188  -0.062
    1UNL     H1   25  -0.294   0.317   0.250
    1UNL     H2   26  -0.402   0.335   0.115
    1UNL     H3   27  -0.418   0.200   0.241
    1UNL     H4   28  -0.108   0.130   0.191
    1UNL     H5   29   0.100   0.117  -0.047
    1UNL     H6   30   0.192  -0.182   0.059
    1UNL     H7   31   0.481  -0.158  -0.047
    1UNL     H8   32   0.425  -0.312   0.015
    1UNL     H9   33   0.289  -0.200  -0.204
    1UNL    H10   34   0.437  -0.114   0.185
    1UNL    H11   35   0.300  -0.115   0.367
    1UNL    H12   36   0.329   0.102   0.307
    1UNL    H13   37   0.368   0.137   0.029
    1UNL    H14   38   0.128   0.220   0.179
    1UNL    H15   39   0.107  -0.047   0.268
    1UNL    H16   40  -0.073  -0.221  -0.121
    1UNL    H17   41  -0.311  -0.135  -0.309
    1UNL    H18   42  -0.311  -0.267  -0.197
    1UNL    H19   43  -0.211  -0.272  -0.338
    1UNL    H20   44   0.087  -0.064  -0.213
    1UNL    H21   45  -0.048  -0.005  -0.321
    1UNL    H22   46   0.024  -0.150  -0.334
    1UNL    H23   47  -0.408   0.103  -0.268
    1UNL    H24   48  -0.537   0.110  -0.079
   0.00000   0.00000   0.00000   0.00000   0.00000   0.00000   0.00000   0.00000   0.00000
Generated with MDTraj, t= 63.0
 48
    1UNL     C1    1  -0.321   0.293   0.147
    1UNL     C2    2  -0.290   0.164   0.077
    1UNL     C3    3  -0.168   0.098   0.107
    1UNL     C4    4  -0.113   0.005   0.020
    1UNL     O1    5   0.014  -0.046   0.053
    1UNL     C5    6   0.126   0.044   0.036
    1UNL     O2    7   0.235  -0.010  -0.035
    1UNL     C6    8   0.283  -0.124   0.041
    1UNL     C7    9   0.375  -0.207  -0.044
    1UNL     O3   10   0.307  -0.239  -0.169
    1UNL     C8   11   0.341  -0.088   0.185
    1UNL     O4   12   0.288  -0.166   0.289
    1UNL     C9   13   0.318   0.066   0.206
    1UNL     O5   14   0.399   0.141   0.117
    1UNL    C10   15   0.168   0.099   0.187
    1UNL     O6   16   0.092   0.053   0.294
    1UNL    C11   17  -0.186  -0.027  -0.096
    1UNL    C12   18  -0.120  -0.125  -0.187
    1UNL    C13   19  -0.208  -0.224  -0.264
    1UNL    C14   20  -0.007  -0.057  -0.276
    1UNL    C15   21  -0.315   0.026  -0.123
    1UNL     O7   22  -0.394  -0.005  -0.229
    1UNL    C16   23  -0.366   0.132  -0.037
    1UNL     O8   24  -0.485   0.192  -0.082
    1UNL     H1   25  -0.251   0.372   0.125
    1UNL     H2   26  -0.419   0.333   0.104
    1UNL     H3   27  -0.321   0.283   0.255
    1UNL     H4   28  -0.111   0.132   0.195
    1UNL     H5   29   0.098   0.129  -0.033
    1UNL     H6   30   0.190  -0.179   0.064
    1UNL     H7   31   0.469  -0.155  -0.077
    1UNL     H8   32   0.412  -0.293   0.013
    1UNL     H9   33   0.254  -0.166  -0.202
    1UNL    H10   34   0.447  -0.104   0.171
    1UNL    H11   35   0.324  -0.123   0.370
    1UNL    H12   36   0.347   0.104   0.310
    1UNL    H13   37   0.373   0.119   0.022
    1UNL    H14   38   0.153   0.211   0.185
    1UNL    H15   39   0.115  -0.041   0.305
    1UNL    H16   40  -0.053  -0.186  -0.120
    1UNL    H17   41  -0.253  -0.171  -0.354
    1UNL    H18   42  -0.292  -0.261  -0.207
    1UNL    H19   43  -0.146  -0.310  -0.296
    1UNL    H20   44   0.068  -0.010  -0.214
    1UNL    H21   45  -0.051   0.005  -0.346
    1UNL    H22   46   0.052  -0.128  -0.330
    1UNL    H23   47  -0.486   0.030  -0.220
    1UNL    H24   48  -0.501   0.270  -0.033
   0.00000   0.00000   0.00000   0.00000   0.00000   0.00000   0.00000   0.00000   0.00000
Generated with MDTraj, t= 64.0
 48
    1UNL     C1    1  -0.343   0.294   0.141
    1UNL     C2    2  -0.283   0.182   0.065
    1UNL     C3    3  -0.162   0.128   0.096
    1UNL     C4    4  -0.113   0.020   0.023
    1UNL     O1    5   0.007  -0.046   0.061
    1UNL     C5    6   0.117   0.045   0.043
    1UNL     O2    7   0.227  -0.016  -0.018
    1UNL     C6    8   0.269  -0.137   0.040
    1UNL     C7    9   0.355  -0.213  -0.052
    1UNL     O3   10   0.319  -0.206  -0.183
    1UNL     C8   11   0.340  -0.095   0.178
    1UNL     O4   12   0.297  -0.173   0.289
    1UNL     C9   13   0.316   0.057   0.202
    1UNL     O5   14   0.406   0.135   0.128
    1UNL    C10   15   0.172   0.094   0.186
    1UNL     O6   16   0.099   0.048   0.292
    1UNL    C11   17  -0.186  -0.034  -0.085
    1UNL    C12   18  -0.108  -0.130  -0.175
    1UNL    C13   19  -0.189  -0.244  -0.237
    1UNL    C14   20  -0.058  -0.044  -0.289
    1UNL    C15   21  -0.304   0.025  -0.127
    1UNL     O7   22  -0.381  -0.013  -0.238
    1UNL    C16   23  -0.353   0.132  -0.047
    1UNL     O8   24  -0.473   0.195  -0.075
    1UNL     H1   25  -0.370   0.377   0.076
    1UNL     H2   26  -0.441   0.262   0.189
    1UNL     H3   27  -0.263   0.326   0.210
    1UNL     H4   28  -0.099   0.174   0.166
    1UNL     H5   29   0.084   0.138  -0.015
    1UNL     H6   30   0.172  -0.184   0.065
    1UNL     H7   31   0.458  -0.169  -0.044
    1UNL     H8   32   0.362  -0.318  -0.026
    1UNL     H9   33   0.297  -0.108  -0.213
    1UNL    H10   34   0.444  -0.115   0.163
    1UNL    H11   35   0.310  -0.128   0.375
    1UNL    H12   36   0.331   0.070   0.316
    1UNL    H13   37   0.402   0.106   0.037
    1UNL    H14   38   0.163   0.204   0.200
    1UNL    H15   39   0.111  -0.050   0.304
    1UNL    H16   40  -0.013  -0.168  -0.123
    1UNL    H17   41  -0.244  -0.191  -0.320
    1UNL    H18   42  -0.257  -0.275  -0.163
    1UNL    H19   43  -0.122  -0.328  -0.271
    1UNL    H20   44   0.007   0.025  -0.244
    1UNL    H21   45  -0.141   0.001  -0.333
    1UNL    H22   46   0.008  -0.090  -0.367
    1UNL    H23   47  -0.472  -0.025  -0.217
    1UNL    H24   48  -0.483   0.189  -0.171
   0.00000   0.00000   0.00000   0.00000   0.00000   0.00000   0.00000   0.00000   0.00000
Generated with MDTraj, t= 65.0
 48
    1UNL     C1    1  -0.370   0.282   0.151
    1UNL     C2    2  -0.289   0.183   0.070
    1UNL     C3    3  -0.174   0.121   0.113
    1UNL     C4    4  -0.106   0.031   0.027
    1UNL     O1    5   0.011  -0.035   0.061
    1UNL     C5    6   0.123   0.056   0.047
    1UNL     O2    7   0.215  -0.010  -0.036
    1UNL     C6    8   0.277  -0.124   0.021
    1UNL     C7    9   0.377  -0.189  -0.070
    1UNL     O3   10   0.313  -0.223  -0.184
    1UNL     C8   11   0.323  -0.097   0.176
    1UNL     O4   12   0.256  -0.190   0.266
    1UNL     C9   13   0.315   0.054   0.219
    1UNL     O5   14   0.417   0.130   0.144
    1UNL    C10   15   0.175   0.098   0.194
    1UNL     O6   16   0.095   0.033   0.286
    1UNL    C11   17  -0.161  -0.009  -0.093
    1UNL    C12   18  -0.092  -0.108  -0.176
    1UNL    C13   19  -0.174  -0.246  -0.163
    1UNL    C14   20  -0.087  -0.079  -0.329
    1UNL    C15   21  -0.287   0.033  -0.126
    1UNL     O7   22  -0.364  -0.018  -0.230
    1UNL    C16   23  -0.344   0.136  -0.049
    1UNL     O8   24  -0.464   0.198  -0.096
    1UNL     H1   25  -0.478   0.281   0.132
    1UNL     H2   26  -0.366   0.261   0.257
    1UNL     H3   27  -0.330   0.385   0.130
    1UNL     H4   28  -0.125   0.143   0.208
    1UNL     H5   29   0.089   0.147  -0.011
    1UNL     H6   30   0.188  -0.189   0.029
    1UNL     H7   31   0.458  -0.116  -0.087
    1UNL     H8   32   0.416  -0.279  -0.025
    1UNL     H9   33   0.277  -0.152  -0.229
    1UNL    H10   34   0.429  -0.119   0.175
    1UNL    H11   35   0.291  -0.181   0.357
    1UNL    H12   36   0.347   0.074   0.328
    1UNL    H13   37   0.388   0.136   0.049
    1UNL    H14   38   0.173   0.206   0.203
    1UNL    H15   39   0.111  -0.062   0.286
    1UNL    H16   40   0.015  -0.117  -0.131
    1UNL    H17   41  -0.279  -0.221  -0.181
    1UNL    H18   42  -0.161  -0.284  -0.064
    1UNL    H19   43  -0.130  -0.334  -0.222
    1UNL    H20   44  -0.034   0.005  -0.356
    1UNL    H21   45  -0.188  -0.072  -0.362
    1UNL    H22   46  -0.032  -0.158  -0.385
    1UNL    H23   47  -0.447   0.039  -0.234
    1UNL    H24   48  -0.447   0.253  -0.179
   0.00000   0.00000   0.00000   0.00000   0.00000   0.00000   0.00000   0.00000   0.00000
Generated with MDTraj, t= 66.0
 48
    1UNL     C1    1  -0.362   0.260   0.163
    1UNL     C2    2  -0.302   0.167   0.073
    1UNL     C3    3  -0.178   0.116   0.105
    1UNL     C4    4  -0.112   0.025   0.020
    1UNL     O1    5   0.017  -0.022   0.057
    1UNL     C5    6   0.130   0.069   0.045
    1UNL     O2    7   0.242   0.018  -0.022
    1UNL     C6    8   0.278  -0.113   0.022
    1UNL     C7    9   0.381  -0.177  -0.069
    1UNL     O3   10   0.309  -0.207  -0.192
    1UNL     C8   11   0.324  -0.115   0.172
    1UNL     O4   12   0.243  -0.203   0.244
    1UNL     C9   13   0.321   0.031   0.222
    1UNL     O5   14   0.422   0.104   0.154
    1UNL    C10   15   0.183   0.104   0.195
    1UNL     O6   16   0.090   0.071   0.302
    1UNL    C11   17  -0.174  -0.013  -0.101
    1UNL    C12   18  -0.109  -0.132  -0.180
    1UNL    C13   19  -0.153  -0.262  -0.117
    1UNL    C14   20  -0.102  -0.137  -0.331
    1UNL    C15   21  -0.289   0.051  -0.141
    1UNL     O7   22  -0.347   0.029  -0.266
    1UNL    C16   23  -0.356   0.142  -0.051
    1UNL     O8   24  -0.475   0.206  -0.085
    1UNL     H1   25  -0.380   0.230   0.267
    1UNL     H2   26  -0.300   0.345   0.174
    1UNL     H3   27  -0.456   0.296   0.111
    1UNL     H4   28  -0.131   0.137   0.200
    1UNL     H5   29   0.096   0.154  -0.021
    1UNL     H6   30   0.190  -0.178   0.016
    1UNL     H7   31   0.461  -0.104  -0.092
    1UNL     H8   32   0.423  -0.258  -0.014
    1UNL     H9   33   0.291  -0.129  -0.242
    1UNL    H10   34   0.426  -0.156   0.172
    1UNL    H11   35   0.265  -0.193   0.339
    1UNL    H12   36   0.325   0.038   0.336
    1UNL    H13   37   0.394   0.092   0.061
    1UNL    H14   38   0.196   0.211   0.198
    1UNL    H15   39   0.038  -0.013   0.283
    1UNL    H16   40   0.001  -0.131  -0.141
    1UNL    H17   41  -0.259  -0.269  -0.107
    1UNL    H18   42  -0.113  -0.279  -0.015
    1UNL    H19   43  -0.112  -0.361  -0.158
    1UNL    H20   44  -0.092  -0.035  -0.362
    1UNL    H21   45  -0.195  -0.173  -0.379
    1UNL    H22   46  -0.016  -0.182  -0.376
    1UNL    H23   47  -0.447   0.050  -0.252
    1UNL    H24   48  -0.471   0.257  -0.174
   0.00000   0.00000   0.00000   0.00000   0.00000   0.00000   0.00000   0.00000   0.00000
Generated with MDTraj, t= 67.0
 48
    1UNL     C1    1  -0.368   0.266   0.172
    1UNL     C2    2  -0.284   0.186   0.072
    1UNL     C3    3  -0.163   0.121   0.101
    1UNL     C4    4  -0.099   0.025   0.021
    1UNL     O1    5   0.020  -0.039   0.061
    1UNL     C5    6   0.131   0.052   0.045
    1UNL     O2    7   0.235   0.005  -0.034
    1UNL     C6    8   0.264  -0.125   0.012
    1UNL     C7    9   0.359  -0.206  -0.082
    1UNL     O3   10   0.336  -0.148  -0.213
    1UNL     C8   11   0.308  -0.121   0.170
    1UNL     O4   12   0.208  -0.187   0.247
    1UNL     C9   13   0.312   0.029   0.219
    1UNL     O5   14   0.421   0.114   0.171
    1UNL    C10   15   0.177   0.098   0.192
    1UNL     O6   16   0.081   0.062   0.285
    1UNL    C11   17  -0.157  -0.011  -0.101
    1UNL    C12   18  -0.093  -0.122  -0.174
    1UNL    C13   19  -0.125  -0.253  -0.095
    1UNL    C14   20  -0.137  -0.131  -0.321
    1UNL    C15   21  -0.279   0.050  -0.130
    1UNL     O7   22  -0.348   0.004  -0.241
    1UNL    C16   23  -0.344   0.147  -0.051
    1UNL     O8   24  -0.461   0.201  -0.110
    1UNL     H1   25  -0.329   0.364   0.206
    1UNL     H2   26  -0.461   0.284   0.122
    1UNL     H3   27  -0.399   0.197   0.255
    1UNL     H4   28  -0.133   0.137   0.201
    1UNL     H5   29   0.097   0.146  -0.001
    1UNL     H6   30   0.169  -0.179   0.007
    1UNL     H7   31   0.460  -0.189  -0.040
    1UNL     H8   32   0.344  -0.311  -0.095
    1UNL     H9   33   0.331  -0.043  -0.208
    1UNL    H10   34   0.408  -0.170   0.186
    1UNL    H11   35   0.229  -0.166   0.341
    1UNL    H12   36   0.329   0.021   0.331
    1UNL    H13   37   0.422   0.114   0.076
    1UNL    H14   38   0.197   0.202   0.189
    1UNL    H15   39   0.057  -0.035   0.268
    1UNL    H16   40   0.021  -0.105  -0.162
    1UNL    H17   41  -0.224  -0.287  -0.115
    1UNL    H18   42  -0.113  -0.268   0.016
    1UNL    H19   43  -0.060  -0.338  -0.125
    1UNL    H20   44  -0.116  -0.035  -0.376
    1UNL    H21   45  -0.247  -0.143  -0.322
    1UNL    H22   46  -0.087  -0.203  -0.377
    1UNL    H23   47  -0.433   0.041  -0.240
    1UNL    H24   48  -0.439   0.217  -0.206
   0.00000   0.00000   0.00000   0.00000   0.00000   0.00000   0.00000   0.00000   0.00000
Generated with MDTraj, t= 68.0
 48
    1UNL     C1    1  -0.335   0.301   0.136
    1UNL     C2    2  -0.289   0.184   0.063
    1UNL     C3    3  -0.168   0.131   0.109
    1UNL     C4    4  -0.114   0.029   0.034
    1UNL     O1    5   0.015  -0.034   0.050
    1UNL     C5    6   0.123   0.062   0.049
    1UNL     O2    7   0.224   0.012  -0.030
    1UNL     C6    8   0.263  -0.116   0.017
    1UNL     C7    9   0.387  -0.153  -0.067
    1UNL     O3   10   0.364  -0.153  -0.203
    1UNL     C8   11   0.299  -0.128   0.174
    1UNL     O4   12   0.197  -0.199   0.247
    1UNL     C9   13   0.319   0.012   0.220
    1UNL     O5   14   0.427   0.072   0.150
    1UNL    C10   15   0.182   0.089   0.198
    1UNL     O6   16   0.086   0.049   0.288
    1UNL    C11   17  -0.175  -0.016  -0.083
    1UNL    C12   18  -0.099  -0.117  -0.177
    1UNL    C13   19  -0.098  -0.256  -0.115
    1UNL    C14   20  -0.142  -0.121  -0.317
    1UNL    C15   21  -0.297   0.038  -0.127
    1UNL     O7   22  -0.365  -0.012  -0.236
    1UNL    C16   23  -0.353   0.144  -0.053
    1UNL     O8   24  -0.475   0.200  -0.098
    1UNL     H1   25  -0.406   0.360   0.072
    1UNL     H2   26  -0.386   0.258   0.221
    1UNL     H3   27  -0.250   0.358   0.175
    1UNL     H4   28  -0.111   0.170   0.196
    1UNL     H5   29   0.089   0.153   0.001
    1UNL     H6   30   0.178  -0.183   0.000
    1UNL     H7   31   0.481  -0.092  -0.055
    1UNL     H8   32   0.411  -0.252  -0.036
    1UNL     H9   33   0.372  -0.071  -0.245
    1UNL    H10   34   0.397  -0.185   0.189
    1UNL    H11   35   0.214  -0.201   0.344
    1UNL    H12   36   0.336   0.005   0.330
    1UNL    H13   37   0.396   0.130   0.073
    1UNL    H14   38   0.189   0.191   0.218
    1UNL    H15   39   0.058  -0.041   0.267
    1UNL    H16   40   0.007  -0.076  -0.175
    1UNL    H17   41  -0.195  -0.302  -0.133
    1UNL    H18   42  -0.075  -0.246  -0.003
    1UNL    H19   43  -0.018  -0.314  -0.153
    1UNL    H20   44  -0.111  -0.028  -0.374
    1UNL    H21   45  -0.249  -0.133  -0.317
    1UNL    H22   46  -0.090  -0.201  -0.363
    1UNL    H23   47  -0.462   0.001  -0.226
    1UNL    H24   48  -0.467   0.214  -0.192
   0.00000   0.00000   0.00000   0.00000   0.00000   0.00000   0.00000   0.00000   0.00000
Generated with MDTraj, t= 69.0
 48
    1UNL     C1    1  -0.337   0.319   0.124
    1UNL     C2    2  -0.280   0.203   0.050
    1UNL     C3    3  -0.160   0.141   0.089
    1UNL     C4    4  -0.107   0.034   0.018
    1UNL     O1    5   0.009  -0.032   0.056
    1UNL     C5    6   0.124   0.051   0.058
    1UNL     O2    7   0.239   0.010  -0.026
    1UNL     C6    8   0.277  -0.123   0.004
    1UNL     C7    9   0.405  -0.163  -0.068
    1UNL     O3   10   0.390  -0.155  -0.204
    1UNL     C8   11   0.303  -0.135   0.159
    1UNL     O4   12   0.209  -0.218   0.233
    1UNL     C9   13   0.309   0.006   0.222
    1UNL     O5   14   0.418   0.086   0.175
    1UNL    C10   15   0.171   0.087   0.206
    1UNL     O6   16   0.082   0.056   0.304
    1UNL    C11   17  -0.178  -0.013  -0.098
    1UNL    C12   18  -0.099  -0.112  -0.176
    1UNL    C13   19  -0.115  -0.252  -0.111
    1UNL    C14   20  -0.143  -0.113  -0.326
    1UNL    C15   21  -0.310   0.028  -0.125
    1UNL     O7   22  -0.382  -0.038  -0.224
    1UNL    C16   23  -0.358   0.144  -0.052
    1UNL     O8   24  -0.483   0.205  -0.076
    1UNL     H1   25  -0.411   0.281   0.200
    1UNL     H2   26  -0.261   0.368   0.185
    1UNL     H3   27  -0.387   0.392   0.064
    1UNL     H4   28  -0.106   0.190   0.163
    1UNL     H5   29   0.095   0.137   0.003
    1UNL     H6   30   0.187  -0.177  -0.023
    1UNL     H7   31   0.484  -0.087  -0.036
    1UNL     H8   32   0.446  -0.260  -0.046
    1UNL     H9   33   0.325  -0.082  -0.227
    1UNL    H10   34   0.406  -0.181   0.169
    1UNL    H11   35   0.232  -0.224   0.328
    1UNL    H12   36   0.333  -0.002   0.328
    1UNL    H13   37   0.402   0.131   0.090
    1UNL    H14   38   0.193   0.188   0.222
    1UNL    H15   39   0.034  -0.024   0.277
    1UNL    H16   40   0.000  -0.068  -0.161
    1UNL    H17   41  -0.224  -0.249  -0.082
    1UNL    H18   42  -0.040  -0.264  -0.027
    1UNL    H19   43  -0.091  -0.321  -0.186
    1UNL    H20   44  -0.154  -0.015  -0.376
    1UNL    H21   45  -0.233  -0.168  -0.334
    1UNL    H22   46  -0.060  -0.164  -0.384
    1UNL    H23   47  -0.473   0.007  -0.243
    1UNL    H24   48  -0.517   0.185  -0.161
   0.00000   0.00000   0.00000   0.00000   0.00000   0.00000   0.00000   0.00000   0.00000
Generated with MDTraj, t= 70.0
 48
    1UNL     C1    1  -0.337   0.307   0.130
    1UNL     C2    2  -0.273   0.200   0.058
    1UNL     C3    3  -0.145   0.147   0.076
    1UNL     C4    4  -0.093   0.043  -0.001
    1UNL     O1    5   0.040  -0.016   0.016
    1UNL     C5    6   0.148   0.067   0.043
    1UNL     O2    7   0.264   0.019  -0.023
    1UNL     C6    8   0.292  -0.117   0.022
    1UNL     C7    9   0.392  -0.181  -0.074
    1UNL     O3   10   0.368  -0.131  -0.205
    1UNL     C8   11   0.314  -0.130   0.178
    1UNL     O4   12   0.209  -0.209   0.225
    1UNL     C9   13   0.304   0.013   0.242
    1UNL     O5   14   0.403   0.103   0.209
    1UNL    C10   15   0.169   0.081   0.201
    1UNL     O6   16   0.067   0.032   0.276
    1UNL    C11   17  -0.173  -0.015  -0.103
    1UNL    C12   18  -0.120  -0.139  -0.176
    1UNL    C13   19  -0.172  -0.262  -0.113
    1UNL    C14   20  -0.140  -0.124  -0.327
    1UNL    C15   21  -0.304   0.031  -0.114
    1UNL     O7   22  -0.386  -0.024  -0.210
    1UNL    C16   23  -0.349   0.140  -0.043
    1UNL     O8   24  -0.475   0.189  -0.076
    1UNL     H1   25  -0.266   0.354   0.204
    1UNL     H2   26  -0.372   0.389   0.064
    1UNL     H3   27  -0.423   0.272   0.178
    1UNL     H4   28  -0.071   0.184   0.149
    1UNL     H5   29   0.118   0.160   0.003
    1UNL     H6   30   0.191  -0.157   0.001
    1UNL     H7   31   0.500  -0.158  -0.045
    1UNL     H8   32   0.386  -0.289  -0.061
    1UNL     H9   33   0.281  -0.071  -0.210
    1UNL    H10   34   0.409  -0.183   0.204
    1UNL    H11   35   0.208  -0.225   0.322
    1UNL    H12   36   0.306  -0.005   0.347
    1UNL    H13   37   0.429   0.085   0.116
    1UNL    H14   38   0.174   0.182   0.235
    1UNL    H15   39   0.034  -0.052   0.234
    1UNL    H16   40  -0.016  -0.126  -0.151
    1UNL    H17   41  -0.278  -0.268  -0.154
    1UNL    H18   42  -0.170  -0.252  -0.003
    1UNL    H19   43  -0.110  -0.347  -0.140
    1UNL    H20   44  -0.106  -0.027  -0.356
    1UNL    H21   45  -0.245  -0.139  -0.355
    1UNL    H22   46  -0.074  -0.192  -0.393
    1UNL    H23   47  -0.475   0.015  -0.187
    1UNL    H24   48  -0.484   0.202  -0.176
   0.00000   0.00000   0.00000   0.00000   0.00000   0.00000   0.00000   0.00000   0.00000
Generated with MDTraj, t= 71.0
 48
    1UNL     C1    1  -0.296   0.309   0.145
    1UNL     C2    2  -0.252   0.188   0.060
    1UNL     C3    3  -0.120   0.149   0.060
    1UNL     C4    4  -0.083   0.040  -0.021
    1UNL     O1    5   0.049  -0.008  -0.008
    1UNL     C5    6   0.146   0.086   0.040
    1UNL     O2    7   0.271   0.041  -0.014
    1UNL     C6    8   0.287  -0.092   0.025
    1UNL     C7    9   0.405  -0.146  -0.057
    1UNL     O3   10   0.360  -0.152  -0.192
    1UNL     C8   11   0.300  -0.116   0.181
    1UNL     O4   12   0.219  -0.225   0.216
    1UNL     C9   13   0.287   0.023   0.247
    1UNL     O5   14   0.399   0.102   0.223
    1UNL    C10   15   0.152   0.086   0.202
    1UNL     O6   16   0.046   0.011   0.257
    1UNL    C11   17  -0.172  -0.028  -0.105
    1UNL    C12   18  -0.142  -0.156  -0.176
    1UNL    C13   19  -0.237  -0.273  -0.139
    1UNL    C14   20  -0.131  -0.139  -0.328
    1UNL    C15   21  -0.295   0.030  -0.118
    1UNL     O7   22  -0.389  -0.021  -0.202
    1UNL    C16   23  -0.333   0.135  -0.033
    1UNL     O8   24  -0.463   0.189  -0.058
    1UNL     H1   25  -0.294   0.401   0.085
    1UNL     H2   26  -0.401   0.300   0.181
    1UNL     H3   27  -0.235   0.318   0.233
    1UNL     H4   28  -0.046   0.190   0.124
    1UNL     H5   29   0.124   0.177  -0.009
    1UNL     H6   30   0.190  -0.133  -0.012
    1UNL     H7   31   0.502  -0.086  -0.042
    1UNL     H8   32   0.431  -0.243  -0.018
    1UNL     H9   33   0.283  -0.101  -0.198
    1UNL    H10   34   0.405  -0.145   0.204
    1UNL    H11   35   0.225  -0.244   0.312
    1UNL    H12   36   0.288   0.020   0.352
    1UNL    H13   37   0.390   0.134   0.130
    1UNL    H14   38   0.147   0.190   0.231
    1UNL    H15   39   0.053  -0.074   0.217
    1UNL    H16   40  -0.045  -0.167  -0.132
    1UNL    H17   41  -0.345  -0.259  -0.165
    1UNL    H18   42  -0.240  -0.294  -0.034
    1UNL    H19   43  -0.207  -0.375  -0.178
    1UNL    H20   44  -0.041  -0.095  -0.365
    1UNL    H21   45  -0.228  -0.091  -0.362
    1UNL    H22   46  -0.132  -0.243  -0.373
    1UNL    H23   47  -0.474   0.000  -0.170
    1UNL    H24   48  -0.522   0.149  -0.135
   0.00000   0.00000   0.00000   0.00000   0.00000   0.00000   0.00000   0.00000   0.00000
Generated with MDTraj, t= 72.0
 48
    1UNL     C1    1  -0.291   0.329   0.129
    1UNL     C2    2  -0.253   0.214   0.045
    1UNL     C3    3  -0.126   0.161   0.049
    1UNL     C4    4  -0.093   0.042  -0.012
    1UNL     O1    5   0.036  -0.022  -0.012
    1UNL     C5    6   0.136   0.065   0.030
    1UNL     O2    7   0.265   0.021  -0.022
    1UNL     C6    8   0.296  -0.109   0.014
    1UNL     C7    9   0.431  -0.162  -0.051
    1UNL     O3   10   0.428  -0.148  -0.187
    1UNL     C8   11   0.316  -0.111   0.175
    1UNL     O4   12   0.241  -0.221   0.223
    1UNL     C9   13   0.283   0.027   0.239
    1UNL     O5   14   0.386   0.118   0.247
    1UNL    C10   15   0.143   0.072   0.186
    1UNL     O6   16   0.046  -0.017   0.234
    1UNL    C11   17  -0.193  -0.030  -0.086
    1UNL    C12   18  -0.143  -0.154  -0.164
    1UNL    C13   19  -0.248  -0.257  -0.157
    1UNL    C14   20  -0.116  -0.117  -0.308
    1UNL    C15   21  -0.318   0.023  -0.102
    1UNL     O7   22  -0.413  -0.033  -0.181
    1UNL    C16   23  -0.352   0.146  -0.036
    1UNL     O8   24  -0.478   0.196  -0.051
    1UNL     H1   25  -0.393   0.361   0.126
    1UNL     H2   26  -0.266   0.308   0.236
    1UNL     H3   27  -0.220   0.410   0.106
    1UNL     H4   28  -0.057   0.201   0.117
    1UNL     H5   29   0.121   0.162  -0.013
    1UNL     H6   30   0.209  -0.168  -0.025
    1UNL     H7   31   0.515  -0.096  -0.014
    1UNL     H8   32   0.465  -0.262  -0.028
    1UNL     H9   33   0.356  -0.094  -0.209
    1UNL    H10   34   0.419  -0.145   0.191
    1UNL    H11   35   0.236  -0.225   0.321
    1UNL    H12   36   0.268   0.013   0.342
    1UNL    H13   37   0.384   0.172   0.167
    1UNL    H14   38   0.119   0.173   0.222
    1UNL    H15   39   0.067  -0.107   0.186
    1UNL    H16   40  -0.058  -0.185  -0.110
    1UNL    H17   41  -0.349  -0.221  -0.178
    1UNL    H18   42  -0.255  -0.305  -0.062
    1UNL    H19   43  -0.225  -0.345  -0.228
    1UNL    H20   44  -0.042  -0.035  -0.312
    1UNL    H21   45  -0.219  -0.096  -0.357
    1UNL    H22   46  -0.066  -0.197  -0.362
    1UNL    H23   47  -0.502  -0.002  -0.148
    1UNL    H24   48  -0.493   0.192  -0.150
   0.00000   0.00000   0.00000   0.00000   0.00000   0.00000   0.00000   0.00000   0.00000
Generated with MDTraj, t= 73.0
 48
    1UNL     C1    1  -0.282   0.344   0.092
    1UNL     C2    2  -0.254   0.210   0.035
    1UNL     C3    3  -0.125   0.155   0.050
    1UNL     C4    4  -0.091   0.037  -0.014
    1UNL     O1    5   0.038  -0.017  -0.023
    1UNL     C5    6   0.142   0.056   0.032
    1UNL     O2    7   0.272   0.005  -0.023
    1UNL     C6    8   0.325  -0.110   0.032
    1UNL     C7    9   0.454  -0.144  -0.041
    1UNL     O3   10   0.449  -0.107  -0.177
    1UNL     C8   11   0.325  -0.126   0.194
    1UNL     O4   12   0.236  -0.228   0.236
    1UNL     C9   13   0.288   0.009   0.247
    1UNL     O5   14   0.374   0.112   0.202
    1UNL    C10   15   0.146   0.049   0.190
    1UNL     O6   16   0.037  -0.031   0.238
    1UNL    C11   17  -0.195  -0.027  -0.087
    1UNL    C12   18  -0.154  -0.143  -0.172
    1UNL    C13   19  -0.265  -0.251  -0.164
    1UNL    C14   20  -0.119  -0.103  -0.321
    1UNL    C15   21  -0.332   0.022  -0.090
    1UNL     O7   22  -0.431  -0.054  -0.155
    1UNL    C16   23  -0.360   0.147  -0.032
    1UNL     O8   24  -0.486   0.213  -0.041
    1UNL     H1   25  -0.335   0.343   0.183
    1UNL     H2   26  -0.186   0.400   0.102
    1UNL     H3   27  -0.332   0.407   0.013
    1UNL     H4   28  -0.057   0.211   0.118
    1UNL     H5   29   0.136   0.162   0.004
    1UNL     H6   30   0.248  -0.183  -0.005
    1UNL     H7   31   0.540  -0.080  -0.006
    1UNL     H8   32   0.484  -0.244  -0.022
    1UNL     H9   33   0.360  -0.052  -0.199
    1UNL    H10   34   0.418  -0.155   0.238
    1UNL    H11   35   0.222  -0.216   0.332
    1UNL    H12   36   0.304   0.019   0.349
    1UNL    H13   37   0.377   0.108   0.102
    1UNL    H14   38   0.118   0.148   0.233
    1UNL    H15   39   0.044  -0.122   0.218
    1UNL    H16   40  -0.069  -0.181  -0.119
    1UNL    H17   41  -0.342  -0.223  -0.234
    1UNL    H18   42  -0.310  -0.264  -0.065
    1UNL    H19   43  -0.207  -0.346  -0.191
    1UNL    H20   44  -0.036  -0.022  -0.323
    1UNL    H21   45  -0.212  -0.081  -0.381
    1UNL    H22   46  -0.069  -0.184  -0.369
    1UNL    H23   47  -0.526  -0.017  -0.140
    1UNL    H24   48  -0.516   0.222  -0.129
   0.00000   0.00000   0.00000   0.00000   0.00000   0.00000   0.00000   0.00000   0.00000
Generated with MDTraj, t= 74.0
 48
    1UNL     C1    1  -0.251   0.344   0.093
    1UNL     C2    2  -0.245   0.210   0.025
    1UNL     C3    3  -0.118   0.151   0.030
    1UNL     C4    4  -0.091   0.030  -0.029
    1UNL     O1    5   0.040  -0.022  -0.012
    1UNL     C5    6   0.140   0.061   0.044
    1UNL     O2    7   0.282   0.025  -0.008
    1UNL     C6    8   0.320  -0.104   0.020
    1UNL     C7    9   0.459  -0.138  -0.039
    1UNL     O3   10   0.454  -0.100  -0.178
    1UNL     C8   11   0.318  -0.123   0.178
    1UNL     O4   12   0.238  -0.225   0.214
    1UNL     C9   13   0.272   0.006   0.248
    1UNL     O5   14   0.367   0.108   0.221
    1UNL    C10   15   0.134   0.055   0.196
    1UNL     O6   16   0.027  -0.017   0.247
    1UNL    C11   17  -0.196  -0.041  -0.089
    1UNL    C12   18  -0.162  -0.162  -0.173
    1UNL    C13   19  -0.273  -0.273  -0.159
    1UNL    C14   20  -0.138  -0.109  -0.308
    1UNL    C15   21  -0.328   0.020  -0.098
    1UNL     O7   22  -0.435  -0.044  -0.165
    1UNL    C16   23  -0.350   0.149  -0.035
    1UNL     O8   24  -0.478   0.208  -0.033
    1UNL     H1   25  -0.165   0.363   0.154
    1UNL     H2   26  -0.261   0.418   0.012
    1UNL     H3   27  -0.346   0.353   0.151
    1UNL     H4   28  -0.041   0.200   0.082
    1UNL     H5   29   0.125   0.164   0.005
    1UNL     H6   30   0.247  -0.165  -0.035
    1UNL     H7   31   0.533  -0.071   0.010
    1UNL     H8   32   0.494  -0.238  -0.034
    1UNL     H9   33   0.392  -0.033  -0.188
    1UNL    H10   34   0.411  -0.157   0.216
    1UNL    H11   35   0.252  -0.254   0.307
    1UNL    H12   36   0.274  -0.008   0.351
    1UNL    H13   37   0.386   0.115   0.125
    1UNL    H14   38   0.110   0.160   0.232
    1UNL    H15   39   0.005  -0.094   0.182
    1UNL    H16   40  -0.069  -0.215  -0.148
    1UNL    H17   41  -0.368  -0.229  -0.186
    1UNL    H18   42  -0.273  -0.302  -0.050
    1UNL    H19   43  -0.233  -0.358  -0.217
    1UNL    H20   44  -0.032  -0.060  -0.318
    1UNL    H21   45  -0.225  -0.052  -0.344
    1UNL    H22   46  -0.129  -0.193  -0.378
    1UNL    H23   47  -0.512   0.012  -0.164
    1UNL    H24   48  -0.485   0.277   0.031
   0.00000   0.00000   0.00000   0.00000   0.00000   0.00000   0.00000   0.00000   0.00000
Generated with MDTraj, t= 75.0
 48
    1UNL     C1    1  -0.267   0.333   0.116
    1UNL     C2    2  -0.246   0.209   0.040
    1UNL     C3    3  -0.117   0.159   0.040
    1UNL     C4    4  -0.087   0.043  -0.028
    1UNL     O1    5   0.037  -0.018  -0.012
    1UNL     C5    6   0.142   0.070   0.033
    1UNL     O2    7   0.276   0.030  -0.017
    1UNL     C6    8   0.300  -0.102   0.009
    1UNL     C7    9   0.446  -0.135  -0.056
    1UNL     O3   10   0.449  -0.104  -0.192
    1UNL     C8   11   0.303  -0.126   0.169
    1UNL     O4   12   0.226  -0.232   0.206
    1UNL     C9   13   0.267   0.000   0.251
    1UNL     O5   14   0.378   0.089   0.282
    1UNL    C10   15   0.142   0.069   0.188
    1UNL     O6   16   0.024   0.002   0.222
    1UNL    C11   17  -0.187  -0.023  -0.103
    1UNL    C12   18  -0.156  -0.159  -0.157
    1UNL    C13   19  -0.254  -0.270  -0.113
    1UNL    C14   20  -0.152  -0.150  -0.310
    1UNL    C15   21  -0.313   0.031  -0.111
    1UNL     O7   22  -0.406  -0.037  -0.186
    1UNL    C16   23  -0.348   0.149  -0.042
    1UNL     O8   24  -0.472   0.195  -0.046
    1UNL     H1   25  -0.285   0.414   0.044
    1UNL     H2   26  -0.348   0.329   0.188
    1UNL     H3   27  -0.180   0.365   0.177
    1UNL     H4   28  -0.043   0.207   0.099
    1UNL     H5   29   0.125   0.174  -0.008
    1UNL     H6   30   0.215  -0.149  -0.039
    1UNL     H7   31   0.529  -0.074  -0.016
    1UNL     H8   32   0.461  -0.239  -0.043
    1UNL     H9   33   0.387  -0.019  -0.204
    1UNL    H10   34   0.402  -0.150   0.200
    1UNL    H11   35   0.261  -0.276   0.288
    1UNL    H12   36   0.241  -0.031   0.348
    1UNL    H13   37   0.405   0.136   0.203
    1UNL    H14   38   0.130   0.175   0.227
    1UNL    H15   39   0.037  -0.085   0.181
    1UNL    H16   40  -0.052  -0.190  -0.137
    1UNL    H17   41  -0.356  -0.232  -0.121
    1UNL    H18   42  -0.252  -0.307  -0.004
    1UNL    H19   43  -0.242  -0.358  -0.172
    1UNL    H20   44  -0.067  -0.084  -0.348
    1UNL    H21   45  -0.249  -0.125  -0.349
    1UNL    H22   46  -0.122  -0.247  -0.366
    1UNL    H23   47  -0.497   0.000  -0.167
    1UNL    H24   48  -0.483   0.277   0.005
   0.00000   0.00000   0.00000   0.00000   0.00000   0.00000   0.00000   0.00000   0.00000
Generated with MDTraj, t= 76.0
 48
    1UNL     C1    1  -0.300   0.328   0.126
    1UNL     C2    2  -0.256   0.211   0.037
    1UNL     C3    3  -0.127   0.170   0.044
    1UNL     C4    4  -0.077   0.058  -0.025
    1UNL     O1    5   0.053   0.006  -0.011
    1UNL     C5    6   0.154   0.087   0.046
    1UNL     O2    7   0.279   0.043  -0.004
    1UNL     C6    8   0.299  -0.091   0.021
    1UNL     C7    9   0.436  -0.133  -0.058
    1UNL     O3   10   0.419  -0.109  -0.198
    1UNL     C8   11   0.296  -0.146   0.174
    1UNL     O4   12   0.197  -0.253   0.178
    1UNL     C9   13   0.275  -0.016   0.260
    1UNL     O5   14   0.388   0.066   0.246
    1UNL    C10   15   0.149   0.068   0.205
    1UNL     O6   16   0.021   0.012   0.228
    1UNL    C11   17  -0.170  -0.012  -0.102
    1UNL    C12   18  -0.137  -0.148  -0.156
    1UNL    C13   19  -0.204  -0.254  -0.076
    1UNL    C14   20  -0.179  -0.172  -0.300
    1UNL    C15   21  -0.302   0.032  -0.120
    1UNL     O7   22  -0.386  -0.044  -0.192
    1UNL    C16   23  -0.343   0.145  -0.049
    1UNL     O8   24  -0.475   0.189  -0.070
    1UNL     H1   25  -0.394   0.301   0.184
    1UNL     H2   26  -0.223   0.358   0.193
    1UNL     H3   27  -0.325   0.418   0.067
    1UNL     H4   28  -0.065   0.221   0.120
    1UNL     H5   29   0.138   0.196   0.015
    1UNL     H6   30   0.211  -0.128  -0.028
    1UNL     H7   31   0.521  -0.070  -0.027
    1UNL     H8   32   0.458  -0.238  -0.057
    1UNL     H9   33   0.342  -0.044  -0.203
    1UNL    H10   34   0.391  -0.190   0.199
    1UNL    H11   35   0.183  -0.300   0.264
    1UNL    H12   36   0.262  -0.037   0.363
    1UNL    H13   37   0.383   0.104   0.153
    1UNL    H14   38   0.148   0.166   0.259
    1UNL    H15   39   0.005  -0.052   0.160
    1UNL    H16   40  -0.025  -0.156  -0.159
    1UNL    H17   41  -0.313  -0.262  -0.097
    1UNL    H18   42  -0.213  -0.240   0.037
    1UNL    H19   43  -0.167  -0.352  -0.083
    1UNL    H20   44  -0.139  -0.095  -0.368
    1UNL    H21   45  -0.289  -0.181  -0.307
    1UNL    H22   46  -0.130  -0.263  -0.357
    1UNL    H23   47  -0.474   0.003  -0.199
    1UNL    H24   48  -0.484   0.288  -0.058
   0.00000   0.00000   0.00000   0.00000   0.00000   0.00000   0.00000   0.00000   0.00000
Generated with MDTraj, t= 77.0
 48
    1UNL     C1    1  -0.296   0.353   0.101
    1UNL     C2    2  -0.262   0.227   0.023
    1UNL     C3    3  -0.131   0.183   0.035
    1UNL     C4    4  -0.085   0.057  -0.015
    1UNL     O1    5   0.047   0.007   0.005
    1UNL     C5    6   0.149   0.083   0.063
    1UNL     O2    7   0.278   0.034   0.009
    1UNL     C6    8   0.284  -0.104   0.003
    1UNL     C7    9   0.405  -0.168  -0.075
    1UNL     O3   10   0.417  -0.083  -0.197
    1UNL     C8   11   0.288  -0.151   0.154
    1UNL     O4   12   0.167  -0.226   0.162
    1UNL     C9   13   0.278  -0.025   0.248
    1UNL     O5   14   0.387   0.066   0.247
    1UNL    C10   15   0.150   0.062   0.216
    1UNL     O6   16   0.031  -0.000   0.252
    1UNL    C11   17  -0.172  -0.020  -0.091
    1UNL    C12   18  -0.121  -0.140  -0.158
    1UNL    C13   19  -0.124  -0.267  -0.065
    1UNL    C14   20  -0.161  -0.178  -0.300
    1UNL    C15   21  -0.305   0.023  -0.112
    1UNL     O7   22  -0.390  -0.041  -0.196
    1UNL    C16   23  -0.351   0.147  -0.050
    1UNL     O8   24  -0.484   0.193  -0.069
    1UNL     H1   25  -0.297   0.328   0.212
    1UNL     H2   26  -0.223   0.427   0.076
    1UNL     H3   27  -0.395   0.386   0.068
    1UNL     H4   28  -0.065   0.226   0.104
    1UNL     H5   29   0.136   0.189   0.022
    1UNL     H6   30   0.193  -0.136  -0.044
    1UNL     H7   31   0.499  -0.136  -0.025
    1UNL     H8   32   0.399  -0.276  -0.091
    1UNL     H9   33   0.373  -0.002  -0.181
    1UNL    H10   34   0.376  -0.211   0.179
    1UNL    H11   35   0.147  -0.256   0.254
    1UNL    H12   36   0.271  -0.054   0.351
    1UNL    H13   37   0.413   0.082   0.156
    1UNL    H14   38   0.160   0.157   0.275
    1UNL    H15   39   0.015  -0.080   0.189
    1UNL    H16   40  -0.010  -0.121  -0.173
    1UNL    H17   41  -0.226  -0.292  -0.025
    1UNL    H18   42  -0.071  -0.243   0.031
    1UNL    H19   43  -0.080  -0.356  -0.105
    1UNL    H20   44  -0.140  -0.098  -0.369
    1UNL    H21   45  -0.276  -0.198  -0.296
    1UNL    H22   46  -0.109  -0.263  -0.357
    1UNL    H23   47  -0.474   0.005  -0.195
    1UNL    H24   48  -0.512   0.218   0.028
   0.00000   0.00000   0.00000   0.00000   0.00000   0.00000   0.00000   0.00000   0.00000
Generated with MDTraj, t= 78.0
 48
    1UNL     C1    1  -0.287   0.360   0.059
    1UNL     C2    2  -0.255   0.223   0.023
    1UNL     C3    3  -0.130   0.175   0.043
    1UNL     C4    4  -0.079   0.060  -0.011
    1UNL     O1    5   0.048  -0.000   0.010
    1UNL     C5    6   0.151   0.080   0.055
    1UNL     O2    7   0.272   0.036  -0.007
    1UNL     C6    8   0.289  -0.098   0.005
    1UNL     C7    9   0.422  -0.133  -0.058
    1UNL     O3   10   0.413  -0.073  -0.193
    1UNL     C8   11   0.273  -0.157   0.157
    1UNL     O4   12   0.153  -0.238   0.172
    1UNL     C9   13   0.272  -0.038   0.256
    1UNL     O5   14   0.398   0.029   0.252
    1UNL    C10   15   0.160   0.060   0.213
    1UNL     O6   16   0.035   0.018   0.265
    1UNL    C11   17  -0.172  -0.011  -0.099
    1UNL    C12   18  -0.122  -0.126  -0.179
    1UNL    C13   19  -0.089  -0.243  -0.076
    1UNL    C14   20  -0.201  -0.183  -0.303
    1UNL    C15   21  -0.305   0.023  -0.111
    1UNL     O7   22  -0.399  -0.053  -0.180
    1UNL    C16   23  -0.350   0.143  -0.048
    1UNL     O8   24  -0.487   0.174  -0.055
    1UNL     H1   25  -0.350   0.372   0.150
    1UNL     H2   26  -0.193   0.413   0.084
    1UNL     H3   27  -0.329   0.421  -0.021
    1UNL     H4   28  -0.074   0.242   0.110
    1UNL     H5   29   0.128   0.185   0.014
    1UNL     H6   30   0.210  -0.136  -0.060
    1UNL     H7   31   0.506  -0.081  -0.004
    1UNL     H8   32   0.427  -0.244  -0.067
    1UNL     H9   33   0.345   0.008  -0.193
    1UNL    H10   34   0.357  -0.223   0.191
    1UNL    H11   35   0.142  -0.269   0.264
    1UNL    H12   36   0.258  -0.076   0.356
    1UNL    H13   37   0.401   0.088   0.172
    1UNL    H14   38   0.185   0.154   0.264
    1UNL    H15   39   0.006  -0.071   0.228
    1UNL    H16   40  -0.017  -0.106  -0.221
    1UNL    H17   41  -0.182  -0.252  -0.014
    1UNL    H18   42  -0.011  -0.210  -0.010
    1UNL    H19   43  -0.066  -0.334  -0.134
    1UNL    H20   44  -0.195  -0.107  -0.383
    1UNL    H21   45  -0.311  -0.199  -0.268
    1UNL    H22   46  -0.164  -0.272  -0.362
    1UNL    H23   47  -0.486  -0.002  -0.189
    1UNL    H24   48  -0.521   0.258  -0.003
   0.00000   0.00000   0.00000   0.00000   0.00000   0.00000   0.00000   0.00000   0.00000
Generated with MDTraj, t= 79.0
 48
    1UNL     C1    1  -0.291   0.343   0.100
    1UNL     C2    2  -0.251   0.226   0.025
    1UNL     C3    3  -0.118   0.178   0.038
    1UNL     C4    4  -0.087   0.056  -0.020
    1UNL     O1    5   0.046   0.007  -0.013
    1UNL     C5    6   0.145   0.088   0.050
    1UNL     O2    7   0.273   0.052  -0.001
    1UNL     C6    8   0.287  -0.088  -0.002
    1UNL     C7    9   0.430  -0.128  -0.051
    1UNL     O3   10   0.457  -0.096  -0.183
    1UNL     C8   11   0.263  -0.152   0.148
    1UNL     O4   12   0.152  -0.236   0.161
    1UNL     C9   13   0.263  -0.033   0.246
    1UNL     O5   14   0.383   0.038   0.254
    1UNL    C10   15   0.154   0.064   0.207
    1UNL     O6   16   0.036   0.001   0.244
    1UNL    C11   17  -0.175  -0.024  -0.088
    1UNL    C12   18  -0.124  -0.132  -0.170
    1UNL    C13   19  -0.096  -0.253  -0.076
    1UNL    C14   20  -0.220  -0.183  -0.276
    1UNL    C15   21  -0.309   0.020  -0.097
    1UNL     O7   22  -0.399  -0.054  -0.167
    1UNL    C16   23  -0.345   0.151  -0.049
    1UNL     O8   24  -0.476   0.189  -0.083
    1UNL     H1   25  -0.385   0.323   0.148
    1UNL     H2   26  -0.217   0.373   0.181
    1UNL     H3   27  -0.301   0.432   0.036
    1UNL     H4   28  -0.040   0.236   0.080
    1UNL     H5   29   0.130   0.197   0.021
    1UNL     H6   30   0.216  -0.120  -0.080
    1UNL     H7   31   0.500  -0.064   0.008
    1UNL     H8   32   0.442  -0.239  -0.042
    1UNL     H9   33   0.414  -0.012  -0.201
    1UNL    H10   34   0.353  -0.216   0.171
    1UNL    H11   35   0.142  -0.275   0.251
    1UNL    H12   36   0.231  -0.072   0.345
    1UNL    H13   37   0.407   0.077   0.167
    1UNL    H14   38   0.175   0.155   0.263
    1UNL    H15   39   0.023  -0.073   0.186
    1UNL    H16   40  -0.025  -0.103  -0.224
    1UNL    H17   41  -0.191  -0.310  -0.070
    1UNL    H18   42  -0.074  -0.223   0.022
    1UNL    H19   43  -0.018  -0.321  -0.123
    1UNL    H20   44  -0.251  -0.095  -0.345
    1UNL    H21   45  -0.308  -0.229  -0.225
    1UNL    H22   46  -0.170  -0.248  -0.353
    1UNL    H23   47  -0.484  -0.008  -0.164
    1UNL    H24   48  -0.494   0.285  -0.048
   0.00000   0.00000   0.00000   0.00000   0.00000   0.00000   0.00000   0.00000   0.00000
Generated with MDTraj, t= 80.0
 48
    1UNL     C1    1  -0.282   0.331   0.124
    1UNL     C2    2  -0.246   0.213   0.039
    1UNL     C3    3  -0.113   0.174   0.037
    1UNL     C4    4  -0.082   0.061  -0.036
    1UNL     O1    5   0.051   0.005  -0.039
    1UNL     C5    6   0.155   0.073   0.026
    1UNL     O2    7   0.291   0.036  -0.011
    1UNL     C6    8   0.306  -0.100  -0.000
    1UNL     C7    9   0.449  -0.137  -0.048
    1UNL     O3   10   0.474  -0.080  -0.169
    1UNL     C8   11   0.266  -0.147   0.148
    1UNL     O4   12   0.153  -0.235   0.151
    1UNL     C9   13   0.253  -0.020   0.242
    1UNL     O5   14   0.364   0.072   0.266
    1UNL    C10   15   0.133   0.061   0.189
    1UNL     O6   16   0.015  -0.011   0.228
    1UNL    C11   17  -0.181  -0.017  -0.107
    1UNL    C12   18  -0.132  -0.152  -0.157
    1UNL    C13   19  -0.130  -0.251  -0.041
    1UNL    C14   20  -0.199  -0.194  -0.282
    1UNL    C15   21  -0.318   0.029  -0.104
    1UNL     O7   22  -0.411  -0.034  -0.182
    1UNL    C16   23  -0.344   0.150  -0.034
    1UNL     O8   24  -0.475   0.196  -0.053
    1UNL     H1   25  -0.374   0.308   0.172
    1UNL     H2   26  -0.201   0.352   0.201
    1UNL     H3   27  -0.290   0.423   0.062
    1UNL     H4   28  -0.041   0.234   0.089
    1UNL     H5   29   0.156   0.181  -0.009
    1UNL     H6   30   0.230  -0.135  -0.074
    1UNL     H7   31   0.518  -0.078   0.016
    1UNL     H8   32   0.465  -0.248  -0.048
    1UNL     H9   33   0.420   0.001  -0.170
    1UNL    H10   34   0.353  -0.204   0.196
    1UNL    H11   35   0.135  -0.257   0.246
    1UNL    H12   36   0.212  -0.049   0.341
    1UNL    H13   37   0.402   0.103   0.180
    1UNL    H14   38   0.134   0.158   0.233
    1UNL    H15   39   0.015  -0.099   0.176
    1UNL    H16   40  -0.024  -0.136  -0.195
    1UNL    H17   41  -0.207  -0.240   0.034
    1UNL    H18   42  -0.042  -0.259   0.021
    1UNL    H19   43  -0.147  -0.359  -0.074
    1UNL    H20   44  -0.190  -0.113  -0.369
    1UNL    H21   45  -0.302  -0.221  -0.263
    1UNL    H22   46  -0.137  -0.276  -0.330
    1UNL    H23   47  -0.490   0.027  -0.188
    1UNL    H24   48  -0.486   0.294  -0.029
   0.00000   0.00000   0.00000   0.00000   0.00000   0.00000   0.00000   0.00000   0.00000
Generated with MDTraj, t= 81.0
 48
    1UNL     C1    1  -0.275   0.334   0.106
    1UNL     C2    2  -0.242   0.210   0.036
    1UNL     C3    3  -0.111   0.171   0.016
    1UNL     C4    4  -0.072   0.058  -0.050
    1UNL     O1    5   0.065   0.017  -0.054
    1UNL     C5    6   0.161   0.084   0.029
    1UNL     O2    7   0.293   0.036  -0.001
    1UNL     C6    8   0.313  -0.099   0.020
    1UNL     C7    9   0.450  -0.132  -0.033
    1UNL     O3   10   0.475  -0.068  -0.156
    1UNL     C8   11   0.288  -0.152   0.170
    1UNL     O4   12   0.179  -0.240   0.163
    1UNL     C9   13   0.252  -0.021   0.252
    1UNL     O5   14   0.361   0.066   0.257
    1UNL    C10   15   0.137   0.065   0.188
    1UNL     O6   16   0.021  -0.004   0.215
    1UNL    C11   17  -0.175  -0.018  -0.120
    1UNL    C12   18  -0.149  -0.162  -0.171
    1UNL    C13   19  -0.194  -0.254  -0.053
    1UNL    C14   20  -0.223  -0.189  -0.304
    1UNL    C15   21  -0.304   0.035  -0.114
    1UNL     O7   22  -0.414  -0.026  -0.173
    1UNL    C16   23  -0.349   0.139  -0.030
    1UNL     O8   24  -0.479   0.175  -0.017
    1UNL     H1   25  -0.336   0.308   0.190
    1UNL     H2   26  -0.184   0.387   0.144
    1UNL     H3   27  -0.327   0.409   0.040
    1UNL     H4   28  -0.035   0.238   0.056
    1UNL     H5   29   0.168   0.192  -0.002
    1UNL     H6   30   0.232  -0.141  -0.048
    1UNL     H7   31   0.524  -0.094   0.034
    1UNL     H8   32   0.459  -0.243  -0.051
    1UNL     H9   33   0.409   0.014  -0.166
    1UNL    H10   34   0.376  -0.213   0.208
    1UNL    H11   35   0.152  -0.280   0.249
    1UNL    H12   36   0.224  -0.053   0.357
    1UNL    H13   37   0.370   0.110   0.167
    1UNL    H14   38   0.135   0.159   0.237
    1UNL    H15   39   0.017  -0.078   0.149
    1UNL    H16   40  -0.039  -0.173  -0.196
    1UNL    H17   41  -0.300  -0.277  -0.046
    1UNL    H18   42  -0.165  -0.226   0.051
    1UNL    H19   43  -0.149  -0.355  -0.062
    1UNL    H20   44  -0.191  -0.128  -0.398
    1UNL    H21   45  -0.331  -0.178  -0.293
    1UNL    H22   46  -0.202  -0.293  -0.342
    1UNL    H23   47  -0.496   0.007  -0.129
    1UNL    H24   48  -0.484   0.256   0.038
   0.00000   0.00000   0.00000   0.00000   0.00000   0.00000   0.00000   0.00000   0.00000
Generated with MDTraj, t= 82.0
 48
    1UNL     C1    1  -0.276   0.359   0.089
    1UNL     C2    2  -0.239   0.229   0.016
    1UNL     C3    3  -0.106   0.184   0.014
    1UNL     C4    4  -0.075   0.053  -0.036
    1UNL     O1    5   0.052  -0.009  -0.038
    1UNL     C5    6   0.151   0.074   0.031
    1UNL     O2    7   0.279   0.039  -0.021
    1UNL     C6    8   0.308  -0.098   0.007
    1UNL     C7    9   0.457  -0.127  -0.021
    1UNL     O3   10   0.482  -0.093  -0.160
    1UNL     C8   11   0.288  -0.144   0.161
    1UNL     O4   12   0.193  -0.252   0.168
    1UNL     C9   13   0.254  -0.013   0.241
    1UNL     O5   14   0.354   0.088   0.262
    1UNL    C10   15   0.127   0.054   0.187
    1UNL     O6   16   0.013  -0.017   0.198
    1UNL    C11   17  -0.178  -0.022  -0.091
    1UNL    C12   18  -0.145  -0.154  -0.159
    1UNL    C13   19  -0.217  -0.275  -0.108
    1UNL    C14   20  -0.168  -0.137  -0.303
    1UNL    C15   21  -0.314   0.020  -0.083
    1UNL     O7   22  -0.423  -0.056  -0.120
    1UNL    C16   23  -0.340   0.147  -0.031
    1UNL     O8   24  -0.475   0.183  -0.028
    1UNL     H1   25  -0.277   0.338   0.198
    1UNL     H2   26  -0.207   0.443   0.079
    1UNL     H3   27  -0.374   0.405   0.060
    1UNL     H4   28  -0.036   0.232   0.074
    1UNL     H5   29   0.128   0.177   0.002
    1UNL     H6   30   0.242  -0.159  -0.064
    1UNL     H7   31   0.514  -0.060   0.038
    1UNL     H8   32   0.489  -0.231   0.001
    1UNL     H9   33   0.424  -0.023  -0.174
    1UNL    H10   34   0.387  -0.174   0.203
    1UNL    H11   35   0.168  -0.267   0.262
    1UNL    H12   36   0.239  -0.047   0.350
    1UNL    H13   37   0.386   0.121   0.178
    1UNL    H14   38   0.102   0.143   0.244
    1UNL    H15   39   0.024  -0.105   0.165
    1UNL    H16   40  -0.036  -0.173  -0.139
    1UNL    H17   41  -0.323  -0.269  -0.124
    1UNL    H18   42  -0.184  -0.296  -0.001
    1UNL    H19   43  -0.173  -0.354  -0.171
    1UNL    H20   44  -0.125  -0.043  -0.338
    1UNL    H21   45  -0.277  -0.137  -0.337
    1UNL    H22   46  -0.120  -0.216  -0.371
    1UNL    H23   47  -0.496   0.007  -0.128
    1UNL    H24   48  -0.488   0.249   0.038
   0.00000   0.00000   0.00000   0.00000   0.00000   0.00000   0.00000   0.00000   0.00000
Generated with MDTraj, t= 83.0
 48
    1UNL     C1    1  -0.282   0.365   0.047
    1UNL     C2    2  -0.245   0.226   0.009
    1UNL     C3    3  -0.115   0.183   0.019
    1UNL     C4    4  -0.076   0.055  -0.026
    1UNL     O1    5   0.052   0.004  -0.035
    1UNL     C5    6   0.159   0.074   0.029
    1UNL     O2    7   0.284   0.028  -0.009
    1UNL     C6    8   0.303  -0.101   0.013
    1UNL     C7    9   0.447  -0.129  -0.033
    1UNL     O3   10   0.462  -0.097  -0.171
    1UNL     C8   11   0.293  -0.137   0.166
    1UNL     O4   12   0.191  -0.233   0.191
    1UNL     C9   13   0.261  -0.009   0.245
    1UNL     O5   14   0.366   0.079   0.265
    1UNL    C10   15   0.131   0.054   0.181
    1UNL     O6   16   0.028  -0.030   0.197
    1UNL    C11   17  -0.178  -0.026  -0.074
    1UNL    C12   18  -0.142  -0.146  -0.158
    1UNL    C13   19  -0.254  -0.261  -0.151
    1UNL    C14   20  -0.123  -0.117  -0.307
    1UNL    C15   21  -0.315   0.010  -0.070
    1UNL     O7   22  -0.426  -0.063  -0.106
    1UNL    C16   23  -0.346   0.138  -0.024
    1UNL     O8   24  -0.476   0.166  -0.013
    1UNL     H1   25  -0.379   0.353   0.109
    1UNL     H2   26  -0.212   0.408   0.115
    1UNL     H3   27  -0.297   0.428  -0.042
    1UNL     H4   28  -0.037   0.254   0.050
    1UNL     H5   29   0.156   0.176  -0.006
    1UNL     H6   30   0.227  -0.165  -0.041
    1UNL     H7   31   0.516  -0.074   0.028
    1UNL     H8   32   0.471  -0.236  -0.014
    1UNL     H9   33   0.411  -0.012  -0.184
    1UNL    H10   34   0.389  -0.179   0.200
    1UNL    H11   35   0.202  -0.280   0.277
    1UNL    H12   36   0.234  -0.042   0.353
    1UNL    H13   37   0.380   0.123   0.176
    1UNL    H14   38   0.100   0.149   0.229
    1UNL    H15   39   0.037  -0.096   0.123
    1UNL    H16   40  -0.054  -0.185  -0.107
    1UNL    H17   41  -0.350  -0.221  -0.185
    1UNL    H18   42  -0.251  -0.294  -0.042
    1UNL    H19   43  -0.216  -0.338  -0.214
    1UNL    H20   44  -0.045  -0.047  -0.323
    1UNL    H21   45  -0.220  -0.081  -0.361
    1UNL    H22   46  -0.098  -0.215  -0.363
    1UNL    H23   47  -0.502  -0.025  -0.051
    1UNL    H24   48  -0.491   0.258  -0.014
   0.00000   0.00000   0.00000   0.00000   0.00000   0.00000   0.00000   0.00000   0.00000
Generated with MDTraj, t= 84.0
 48
    1UNL     C1    1  -0.270   0.357   0.079
    1UNL     C2    2  -0.246   0.226   0.017
    1UNL     C3    3  -0.121   0.180   0.004
    1UNL     C4    4  -0.085   0.060  -0.043
    1UNL     O1    5   0.051   0.023  -0.049
    1UNL     C5    6   0.155   0.081   0.034
    1UNL     O2    7   0.283   0.036  -0.015
    1UNL     C6    8   0.301  -0.100   0.017
    1UNL     C7    9   0.431  -0.156  -0.060
    1UNL     O3   10   0.432  -0.101  -0.188
    1UNL     C8   11   0.294  -0.137   0.173
    1UNL     O4   12   0.218  -0.254   0.205
    1UNL     C9   13   0.255  -0.010   0.249
    1UNL     O5   14   0.353   0.088   0.248
    1UNL    C10   15   0.125   0.057   0.193
    1UNL     O6   16   0.006  -0.008   0.225
    1UNL    C11   17  -0.182  -0.027  -0.089
    1UNL    C12   18  -0.128  -0.162  -0.147
    1UNL    C13   19  -0.245  -0.262  -0.161
    1UNL    C14   20  -0.061  -0.132  -0.284
    1UNL    C15   21  -0.313   0.012  -0.080
    1UNL     O7   22  -0.427  -0.060  -0.109
    1UNL    C16   23  -0.349   0.140  -0.031
    1UNL     O8   24  -0.480   0.173  -0.010
    1UNL     H1   25  -0.350   0.347   0.160
    1UNL     H2   26  -0.181   0.387   0.135
    1UNL     H3   27  -0.291   0.434   0.004
    1UNL     H4   28  -0.043   0.253   0.025
    1UNL     H5   29   0.154   0.185   0.017
    1UNL     H6   30   0.213  -0.147  -0.033
    1UNL     H7   31   0.517  -0.119  -0.010
    1UNL     H8   32   0.449  -0.268  -0.061
    1UNL     H9   33   0.412  -0.004  -0.187
    1UNL    H10   34   0.394  -0.158   0.207
    1UNL    H11   35   0.208  -0.273   0.301
    1UNL    H12   36   0.230  -0.037   0.359
    1UNL    H13   37   0.375   0.111   0.154
    1UNL    H14   38   0.113   0.161   0.237
    1UNL    H15   39  -0.011  -0.066   0.145
    1UNL    H16   40  -0.062  -0.199  -0.072
    1UNL    H17   41  -0.321  -0.226  -0.235
    1UNL    H18   42  -0.291  -0.266  -0.058
    1UNL    H19   43  -0.215  -0.360  -0.192
    1UNL    H20   44   0.020  -0.066  -0.257
    1UNL    H21   45  -0.131  -0.079  -0.359
    1UNL    H22   46  -0.029  -0.230  -0.334
    1UNL    H23   47  -0.501  -0.001  -0.124
    1UNL    H24   48  -0.485   0.245   0.046
   0.00000   0.00000   0.00000   0.00000   0.00000   0.00000   0.00000   0.00000   0.00000
Generated with MDTraj, t= 85.0
 48
    1UNL     C1    1  -0.269   0.348   0.106
    1UNL     C2    2  -0.246   0.218   0.031
    1UNL     C3    3  -0.115   0.170   0.036
    1UNL     C4    4  -0.084   0.055  -0.033
    1UNL     O1    5   0.055   0.037  -0.062
    1UNL     C5    6   0.159   0.089   0.029
    1UNL     O2    7   0.291   0.043   0.000
    1UNL     C6    8   0.294  -0.098   0.012
    1UNL     C7    9   0.415  -0.153  -0.071
    1UNL     O3   10   0.394  -0.135  -0.206
    1UNL     C8   11   0.298  -0.134   0.169
    1UNL     O4   12   0.198  -0.221   0.192
    1UNL     C9   13   0.264   0.000   0.250
    1UNL     O5   14   0.361   0.103   0.264
    1UNL    C10   15   0.131   0.064   0.190
    1UNL     O6   16   0.023  -0.025   0.210
    1UNL    C11   17  -0.183  -0.032  -0.081
    1UNL    C12   18  -0.134  -0.164  -0.134
    1UNL    C13   19  -0.245  -0.257  -0.166
    1UNL    C14   20  -0.027  -0.151  -0.251
    1UNL    C15   21  -0.320   0.010  -0.080
    1UNL     O7   22  -0.421  -0.051  -0.156
    1UNL    C16   23  -0.348   0.138  -0.024
    1UNL     O8   24  -0.487   0.173  -0.032
    1UNL     H1   25  -0.265   0.326   0.213
    1UNL     H2   26  -0.193   0.431   0.092
    1UNL     H3   27  -0.365   0.397   0.081
    1UNL     H4   28  -0.038   0.228   0.077
    1UNL     H5   29   0.160   0.192   0.014
    1UNL     H6   30   0.201  -0.132  -0.035
    1UNL     H7   31   0.512  -0.116  -0.043
    1UNL     H8   32   0.426  -0.263  -0.049
    1UNL     H9   33   0.371  -0.045  -0.240
    1UNL    H10   34   0.389  -0.173   0.209
    1UNL    H11   35   0.184  -0.243   0.287
    1UNL    H12   36   0.239  -0.034   0.359
    1UNL    H13   37   0.397   0.130   0.179
    1UNL    H14   38   0.096   0.159   0.244
    1UNL    H15   39   0.045  -0.115   0.182
    1UNL    H16   40  -0.087  -0.193  -0.042
    1UNL    H17   41  -0.288  -0.249  -0.270
    1UNL    H18   42  -0.329  -0.238  -0.099
    1UNL    H19   43  -0.235  -0.366  -0.158
    1UNL    H20   44   0.048  -0.083  -0.207
    1UNL    H21   45  -0.061  -0.111  -0.349
    1UNL    H22   46   0.012  -0.256  -0.273
    1UNL    H23   47  -0.508  -0.005  -0.131
    1UNL    H24   48  -0.503   0.247   0.023
   0.00000   0.00000   0.00000   0.00000   0.00000   0.00000   0.00000   0.00000   0.00000
Generated with MDTraj, t= 86.0
 48
    1UNL     C1    1  -0.294   0.338   0.109
    1UNL     C2    2  -0.258   0.219   0.033
    1UNL     C3    3  -0.121   0.180   0.036
    1UNL     C4    4  -0.078   0.064  -0.023
    1UNL     O1    5   0.048   0.008  -0.023
    1UNL     C5    6   0.144   0.083   0.033
    1UNL     O2    7   0.269   0.039  -0.017
    1UNL     C6    8   0.291  -0.099   0.013
    1UNL     C7    9   0.411  -0.147  -0.070
    1UNL     O3   10   0.387  -0.147  -0.207
    1UNL     C8   11   0.299  -0.135   0.175
    1UNL     O4   12   0.208  -0.237   0.197
    1UNL     C9   13   0.270   0.004   0.246
    1UNL     O5   14   0.382   0.093   0.242
    1UNL    C10   15   0.135   0.069   0.193
    1UNL     O6   16   0.025  -0.001   0.237
    1UNL    C11   17  -0.173  -0.021  -0.091
    1UNL    C12   18  -0.122  -0.164  -0.131
    1UNL    C13   19  -0.242  -0.252  -0.169
    1UNL    C14   20  -0.028  -0.145  -0.256
    1UNL    C15   21  -0.305   0.027  -0.105
    1UNL     O7   22  -0.409  -0.045  -0.159
    1UNL    C16   23  -0.347   0.144  -0.040
    1UNL     O8   24  -0.489   0.166  -0.033
    1UNL     H1   25  -0.302   0.312   0.212
    1UNL     H2   26  -0.213   0.419   0.104
    1UNL     H3   27  -0.387   0.380   0.066
    1UNL     H4   28  -0.041   0.233   0.092
    1UNL     H5   29   0.140   0.182  -0.003
    1UNL     H6   30   0.204  -0.152  -0.020
    1UNL     H7   31   0.499  -0.092  -0.042
    1UNL     H8   32   0.442  -0.252  -0.039
    1UNL     H9   33   0.329  -0.064  -0.229
    1UNL    H10   34   0.396  -0.173   0.201
    1UNL    H11   35   0.206  -0.275   0.288
    1UNL    H12   36   0.258  -0.016   0.361
    1UNL    H13   37   0.388   0.139   0.153
    1UNL    H14   38   0.136   0.173   0.241
    1UNL    H15   39   0.030  -0.096   0.208
    1UNL    H16   40  -0.066  -0.197  -0.046
    1UNL    H17   41  -0.297  -0.218  -0.262
    1UNL    H18   42  -0.310  -0.246  -0.088
    1UNL    H19   43  -0.227  -0.361  -0.182
    1UNL    H20   44   0.053  -0.064  -0.247
    1UNL    H21   45  -0.084  -0.119  -0.345
    1UNL    H22   46   0.012  -0.241  -0.300
    1UNL    H23   47  -0.476   0.021  -0.173
    1UNL    H24   48  -0.523   0.173   0.057
   0.00000   0.00000   0.00000   0.00000   0.00000   0.00000   0.00000   0.00000   0.00000
Generated with MDTraj, t= 87.0
 48
    1UNL     C1    1  -0.298   0.344   0.093
    1UNL     C2    2  -0.254   0.215   0.034
    1UNL     C3    3  -0.125   0.164   0.055
    1UNL     C4    4  -0.088   0.043  -0.002
    1UNL     O1    5   0.041  -0.014   0.013
    1UNL     C5    6   0.145   0.078   0.042
    1UNL     O2    7   0.264   0.032  -0.019
    1UNL     C6    8   0.287  -0.103   0.018
    1UNL     C7    9   0.402  -0.162  -0.054
    1UNL     O3   10   0.400  -0.118  -0.187
    1UNL     C8   11   0.297  -0.124   0.170
    1UNL     O4   12   0.207  -0.227   0.212
    1UNL     C9   13   0.294   0.008   0.239
    1UNL     O5   14   0.406   0.081   0.217
    1UNL    C10   15   0.163   0.079   0.201
    1UNL     O6   16   0.052   0.011   0.249
    1UNL    C11   17  -0.183  -0.031  -0.083
    1UNL    C12   18  -0.140  -0.153  -0.157
    1UNL    C13   19  -0.245  -0.258  -0.190
    1UNL    C14   20  -0.070  -0.113  -0.287
    1UNL    C15   21  -0.310   0.019  -0.095
    1UNL     O7   22  -0.412  -0.050  -0.172
    1UNL    C16   23  -0.350   0.136  -0.035
    1UNL     O8   24  -0.484   0.168  -0.057
    1UNL     H1   25  -0.397   0.334   0.135
    1UNL     H2   26  -0.236   0.378   0.181
    1UNL     H3   27  -0.301   0.424   0.015
    1UNL     H4   28  -0.069   0.217   0.129
    1UNL     H5   29   0.120   0.165  -0.012
    1UNL     H6   30   0.200  -0.155  -0.016
    1UNL     H7   31   0.490  -0.122  -0.006
    1UNL     H8   32   0.421  -0.273  -0.038
    1UNL     H9   33   0.345  -0.036  -0.180
    1UNL    H10   34   0.400  -0.157   0.189
    1UNL    H11   35   0.196  -0.220   0.309
    1UNL    H12   36   0.284  -0.016   0.352
    1UNL    H13   37   0.416   0.081   0.121
    1UNL    H14   38   0.161   0.182   0.248
    1UNL    H15   39   0.037  -0.069   0.195
    1UNL    H16   40  -0.061  -0.197  -0.093
    1UNL    H17   41  -0.334  -0.205  -0.230
    1UNL    H18   42  -0.257  -0.313  -0.100
    1UNL    H19   43  -0.196  -0.327  -0.266
    1UNL    H20   44   0.019  -0.037  -0.277
    1UNL    H21   45  -0.135  -0.071  -0.364
    1UNL    H22   46  -0.040  -0.198  -0.351
    1UNL    H23   47  -0.507  -0.019  -0.151
    1UNL    H24   48  -0.503   0.269  -0.066
   0.00000   0.00000   0.00000   0.00000   0.00000   0.00000   0.00000   0.00000   0.00000
Generated with MDTraj, t= 88.0
 48
    1UNL     C1    1  -0.285   0.330   0.114
    1UNL     C2    2  -0.262   0.202   0.049
    1UNL     C3    3  -0.142   0.137   0.073
    1UNL     C4    4  -0.107   0.019   0.004
    1UNL     O1    5   0.021  -0.037   0.037
    1UNL     C5    6   0.133   0.052   0.043
    1UNL     O2    7   0.255   0.015  -0.019
    1UNL     C6    8   0.300  -0.113   0.013
    1UNL     C7    9   0.427  -0.153  -0.050
    1UNL     O3   10   0.410  -0.116  -0.181
    1UNL     C8   11   0.306  -0.125   0.169
    1UNL     O4   12   0.200  -0.211   0.215
    1UNL     C9   13   0.303   0.020   0.235
    1UNL     O5   14   0.414   0.094   0.201
    1UNL    C10   15   0.164   0.081   0.195
    1UNL     O6   16   0.062   0.033   0.273
    1UNL    C11   17  -0.192  -0.036  -0.086
    1UNL    C12   18  -0.144  -0.151  -0.173
    1UNL    C13   19  -0.216  -0.281  -0.176
    1UNL    C14   20  -0.112  -0.085  -0.309
    1UNL    C15   21  -0.319   0.020  -0.109
    1UNL     O7   22  -0.416  -0.038  -0.185
    1UNL    C16   23  -0.348   0.144  -0.046
    1UNL     O8   24  -0.470   0.203  -0.082
    1UNL     H1   25  -0.394   0.337   0.139
    1UNL     H2   26  -0.230   0.337   0.208
    1UNL     H3   27  -0.254   0.409   0.040
    1UNL     H4   28  -0.075   0.170   0.150
    1UNL     H5   29   0.097   0.141  -0.005
    1UNL     H6   30   0.225  -0.174  -0.035
    1UNL     H7   31   0.519  -0.117  -0.005
    1UNL     H8   32   0.436  -0.265  -0.042
    1UNL     H9   33   0.342  -0.045  -0.180
    1UNL    H10   34   0.405  -0.170   0.198
    1UNL    H11   35   0.188  -0.194   0.311
    1UNL    H12   36   0.322   0.004   0.348
    1UNL    H13   37   0.406   0.112   0.102
    1UNL    H14   38   0.177   0.190   0.212
    1UNL    H15   39   0.047  -0.062   0.243
    1UNL    H16   40  -0.042  -0.169  -0.126
    1UNL    H17   41  -0.283  -0.277  -0.261
    1UNL    H18   42  -0.261  -0.301  -0.079
    1UNL    H19   43  -0.137  -0.359  -0.191
    1UNL    H20   44  -0.048   0.007  -0.300
    1UNL    H21   45  -0.203  -0.068  -0.371
    1UNL    H22   46  -0.067  -0.162  -0.376
    1UNL    H23   47  -0.494   0.015  -0.196
    1UNL    H24   48  -0.465   0.303  -0.056
   0.00000   0.00000   0.00000   0.00000   0.00000   0.00000   0.00000   0.00000   0.00000
Generated with MDTraj, t= 89.0
 48
    1UNL     C1    1  -0.307   0.302   0.152
    1UNL     C2    2  -0.275   0.188   0.061
    1UNL     C3    3  -0.160   0.120   0.090
    1UNL     C4    4  -0.102   0.012   0.013
    1UNL     O1    5   0.019  -0.048   0.040
    1UNL     C5    6   0.127   0.048   0.042
    1UNL     O2    7   0.246   0.009  -0.031
    1UNL     C6    8   0.298  -0.116   0.023
    1UNL     C7    9   0.436  -0.143  -0.052
    1UNL     O3   10   0.425  -0.145  -0.194
    1UNL     C8   11   0.311  -0.118   0.185
    1UNL     O4   12   0.214  -0.213   0.223
    1UNL     C9   13   0.302   0.026   0.237
    1UNL     O5   14   0.399   0.106   0.176
    1UNL    C10   15   0.165   0.083   0.195
    1UNL     O6   16   0.056   0.047   0.279
    1UNL    C11   17  -0.177  -0.030  -0.099
    1UNL    C12   18  -0.137  -0.150  -0.180
    1UNL    C13   19  -0.222  -0.264  -0.128
    1UNL    C14   20  -0.144  -0.111  -0.331
    1UNL    C15   21  -0.295   0.042  -0.128
    1UNL     O7   22  -0.370   0.009  -0.232
    1UNL    C16   23  -0.344   0.150  -0.052
    1UNL     O8   24  -0.468   0.205  -0.083
    1UNL     H1   25  -0.393   0.277   0.224
    1UNL     H2   26  -0.222   0.318   0.215
    1UNL     H3   27  -0.329   0.393   0.091
    1UNL     H4   28  -0.100   0.157   0.173
    1UNL     H5   29   0.082   0.135  -0.008
    1UNL     H6   30   0.219  -0.187  -0.006
    1UNL     H7   31   0.497  -0.058  -0.027
    1UNL     H8   32   0.496  -0.229  -0.014
    1UNL     H9   33   0.338  -0.098  -0.227
    1UNL    H10   34   0.406  -0.171   0.216
    1UNL    H11   35   0.206  -0.225   0.320
    1UNL    H12   36   0.311   0.031   0.351
    1UNL    H13   37   0.381   0.115   0.081
    1UNL    H14   38   0.171   0.191   0.212
    1UNL    H15   39   0.022  -0.041   0.247
    1UNL    H16   40  -0.027  -0.171  -0.154
    1UNL    H17   41  -0.322  -0.229  -0.115
    1UNL    H18   42  -0.186  -0.313  -0.033
    1UNL    H19   43  -0.235  -0.351  -0.193
    1UNL    H20   44  -0.079  -0.029  -0.352
    1UNL    H21   45  -0.255  -0.092  -0.352
    1UNL    H22   46  -0.135  -0.210  -0.384
    1UNL    H23   47  -0.456   0.062  -0.229
    1UNL    H24   48  -0.523   0.236   0.001
   0.00000   0.00000   0.00000   0.00000   0.00000   0.00000   0.00000   0.00000   0.00000
Generated with MDTraj, t= 90.0
 48
    1UNL     C1    1  -0.337   0.250   0.181
    1UNL     C2    2  -0.275   0.176   0.071
    1UNL     C3    3  -0.147   0.117   0.091
    1UNL     C4    4  -0.098   0.027  -0.001
    1UNL     O1    5   0.031  -0.031   0.018
    1UNL     C5    6   0.137   0.061   0.040
    1UNL     O2    7   0.250   0.002  -0.020
    1UNL     C6    8   0.286  -0.125   0.028
    1UNL     C7    9   0.419  -0.171  -0.055
    1UNL     O3   10   0.403  -0.152  -0.192
    1UNL     C8   11   0.317  -0.114   0.182
    1UNL     O4   12   0.234  -0.191   0.264
    1UNL     C9   13   0.306   0.035   0.229
    1UNL     O5   14   0.413   0.121   0.179
    1UNL    C10   15   0.159   0.089   0.192
    1UNL     O6   16   0.059   0.016   0.264
    1UNL    C11   17  -0.183  -0.009  -0.111
    1UNL    C12   18  -0.150  -0.137  -0.177
    1UNL    C13   19  -0.218  -0.257  -0.114
    1UNL    C14   20  -0.148  -0.140  -0.331
    1UNL    C15   21  -0.298   0.057  -0.139
    1UNL     O7   22  -0.365   0.032  -0.261
    1UNL    C16   23  -0.350   0.151  -0.049
    1UNL     O8   24  -0.468   0.212  -0.089
    1UNL     H1   25  -0.428   0.197   0.225
    1UNL     H2   26  -0.273   0.259   0.269
    1UNL     H3   27  -0.368   0.352   0.153
    1UNL     H4   28  -0.091   0.117   0.179
    1UNL     H5   29   0.109   0.149  -0.025
    1UNL     H6   30   0.195  -0.185   0.004
    1UNL     H7   31   0.508  -0.120  -0.023
    1UNL     H8   32   0.443  -0.276  -0.033
    1UNL     H9   33   0.313  -0.123  -0.216
    1UNL    H10   34   0.423  -0.153   0.197
    1UNL    H11   35   0.278  -0.191   0.353
    1UNL    H12   36   0.317   0.055   0.339
    1UNL    H13   37   0.422   0.116   0.080
    1UNL    H14   38   0.147   0.193   0.215
    1UNL    H15   39   0.098  -0.075   0.267
    1UNL    H16   40  -0.040  -0.158  -0.150
    1UNL    H17   41  -0.316  -0.268  -0.154
    1UNL    H18   42  -0.228  -0.260  -0.001
    1UNL    H19   43  -0.176  -0.356  -0.132
    1UNL    H20   44  -0.085  -0.062  -0.362
    1UNL    H21   45  -0.257  -0.130  -0.362
    1UNL    H22   46  -0.120  -0.245  -0.363
    1UNL    H23   47  -0.436   0.098  -0.272
    1UNL    H24   48  -0.492   0.294  -0.030
   0.00000   0.00000   0.00000   0.00000   0.00000   0.00000   0.00000   0.00000   0.00000
Generated with MDTraj, t= 91.0
 48
    1UNL     C1    1  -0.329   0.274   0.176
    1UNL     C2    2  -0.276   0.178   0.067
    1UNL     C3    3  -0.154   0.117   0.093
    1UNL     C4    4  -0.101   0.024   0.004
    1UNL     O1    5   0.028  -0.031   0.019
    1UNL     C5    6   0.135   0.057   0.039
    1UNL     O2    7   0.253   0.005  -0.024
    1UNL     C6    8   0.290  -0.119   0.033
    1UNL     C7    9   0.394  -0.194  -0.057
    1UNL     O3   10   0.359  -0.193  -0.195
    1UNL     C8   11   0.336  -0.098   0.184
    1UNL     O4   12   0.280  -0.197   0.272
    1UNL     C9   13   0.296   0.046   0.237
    1UNL     O5   14   0.392   0.141   0.196
    1UNL    C10   15   0.155   0.083   0.194
    1UNL     O6   16   0.061   0.024   0.279
    1UNL    C11   17  -0.168  -0.012  -0.109
    1UNL    C12   18  -0.122  -0.127  -0.199
    1UNL    C13   19  -0.193  -0.255  -0.151
    1UNL    C14   20  -0.156  -0.113  -0.345
    1UNL    C15   21  -0.295   0.044  -0.140
    1UNL     O7   22  -0.380   0.012  -0.250
    1UNL    C16   23  -0.343   0.142  -0.047
    1UNL     O8   24  -0.466   0.207  -0.080
    1UNL     H1   25  -0.439   0.271   0.190
    1UNL     H2   26  -0.286   0.238   0.273
    1UNL     H3   27  -0.293   0.377   0.164
    1UNL     H4   28  -0.107   0.143   0.188
    1UNL     H5   29   0.115   0.157  -0.015
    1UNL     H6   30   0.189  -0.172   0.035
    1UNL     H7   31   0.493  -0.152  -0.046
    1UNL     H8   32   0.412  -0.298  -0.024
    1UNL     H9   33   0.264  -0.177  -0.207
    1UNL    H10   34   0.444  -0.129   0.194
    1UNL    H11   35   0.281  -0.164   0.365
    1UNL    H12   36   0.299   0.034   0.347
    1UNL    H13   37   0.381   0.145   0.098
    1UNL    H14   38   0.148   0.188   0.214
    1UNL    H15   39   0.060  -0.071   0.264
    1UNL    H16   40  -0.012  -0.146  -0.171
    1UNL    H17   41  -0.297  -0.232  -0.174
    1UNL    H18   42  -0.181  -0.276  -0.041
    1UNL    H19   43  -0.172  -0.343  -0.207
    1UNL    H20   44  -0.119  -0.020  -0.379
    1UNL    H21   45  -0.267  -0.117  -0.352
    1UNL    H22   46  -0.120  -0.190  -0.419
    1UNL    H23   47  -0.467   0.054  -0.237
    1UNL    H24   48  -0.458   0.306  -0.063
   0.00000   0.00000   0.00000   0.00000   0.00000   0.00000   0.00000   0.00000   0.00000
Generated with MDTraj, t= 92.0
 48
    1UNL     C1    1  -0.302   0.309   0.133
    1UNL     C2    2  -0.273   0.185   0.070
    1UNL     C3    3  -0.153   0.117   0.094
    1UNL     C4    4  -0.106   0.023   0.007
    1UNL     O1    5   0.013  -0.042   0.027
    1UNL     C5    6   0.122   0.052   0.044
    1UNL     O2    7   0.247   0.015  -0.023
    1UNL     C6    8   0.297  -0.105   0.037
    1UNL     C7    9   0.388  -0.183  -0.057
    1UNL     O3   10   0.314  -0.239  -0.164
    1UNL     C8   11   0.343  -0.090   0.184
    1UNL     O4   12   0.300  -0.200   0.268
    1UNL     C9   13   0.298   0.041   0.239
    1UNL     O5   14   0.376   0.146   0.186
    1UNL    C10   15   0.154   0.077   0.198
    1UNL     O6   16   0.068   0.010   0.284
    1UNL    C11   17  -0.178  -0.018  -0.105
    1UNL    C12   18  -0.114  -0.113  -0.208
    1UNL    C13   19  -0.157  -0.270  -0.206
    1UNL    C14   20  -0.131  -0.058  -0.344
    1UNL    C15   21  -0.304   0.039  -0.127
    1UNL     O7   22  -0.390  -0.009  -0.225
    1UNL    C16   23  -0.350   0.142  -0.042
    1UNL     O8   24  -0.474   0.195  -0.071
    1UNL     H1   25  -0.395   0.301   0.186
    1UNL     H2   26  -0.215   0.329   0.206
    1UNL     H3   27  -0.300   0.389   0.056
    1UNL     H4   28  -0.086   0.154   0.170
    1UNL     H5   29   0.096   0.152  -0.008
    1UNL     H6   30   0.198  -0.161   0.044
    1UNL     H7   31   0.464  -0.124  -0.107
    1UNL     H8   32   0.447  -0.260  -0.003
    1UNL     H9   33   0.233  -0.290  -0.127
    1UNL    H10   34   0.453  -0.077   0.172
    1UNL    H11   35   0.301  -0.161   0.358
    1UNL    H12   36   0.319   0.044   0.347
    1UNL    H13   37   0.373   0.141   0.090
    1UNL    H14   38   0.137   0.180   0.225
    1UNL    H15   39   0.064  -0.089   0.263
    1UNL    H16   40  -0.001  -0.111  -0.182
    1UNL    H17   41  -0.266  -0.268  -0.212
    1UNL    H18   42  -0.123  -0.314  -0.110
    1UNL    H19   43  -0.125  -0.325  -0.290
    1UNL    H20   44  -0.087   0.042  -0.354
    1UNL    H21   45  -0.232  -0.065  -0.376
    1UNL    H22   46  -0.074  -0.102  -0.431
    1UNL    H23   47  -0.464   0.059  -0.232
    1UNL    H24   48  -0.506   0.236   0.010
   0.00000   0.00000   0.00000   0.00000   0.00000   0.00000   0.00000   0.00000   0.00000
Generated with MDTraj, t= 93.0
 48
    1UNL     C1    1  -0.331   0.310   0.143
    1UNL     C2    2  -0.278   0.198   0.056
    1UNL     C3    3  -0.158   0.132   0.078
    1UNL     C4    4  -0.105   0.029   0.004
    1UNL     O1    5   0.013  -0.036   0.034
    1UNL     C5    6   0.129   0.049   0.048
    1UNL     O2    7   0.247  -0.001  -0.024
    1UNL     C6    8   0.281  -0.121   0.035
    1UNL     C7    9   0.380  -0.195  -0.048
    1UNL     O3   10   0.309  -0.257  -0.146
    1UNL     C8   11   0.346  -0.089   0.181
    1UNL     O4   12   0.309  -0.194   0.275
    1UNL     C9   13   0.309   0.056   0.230
    1UNL     O5   14   0.395   0.150   0.168
    1UNL    C10   15   0.159   0.077   0.199
    1UNL     O6   16   0.086  -0.010   0.287
    1UNL    C11   17  -0.179  -0.015  -0.109
    1UNL    C12   18  -0.113  -0.102  -0.207
    1UNL    C13   19  -0.177  -0.239  -0.223
    1UNL    C14   20  -0.096  -0.024  -0.338
    1UNL    C15   21  -0.305   0.036  -0.120
    1UNL     O7   22  -0.380  -0.023  -0.221
    1UNL    C16   23  -0.360   0.142  -0.039
    1UNL     O8   24  -0.494   0.172  -0.074
    1UNL     H1   25  -0.385   0.276   0.230
    1UNL     H2   26  -0.254   0.385   0.183
    1UNL     H3   27  -0.401   0.378   0.087
    1UNL     H4   28  -0.099   0.173   0.156
    1UNL     H5   29   0.110   0.148  -0.007
    1UNL     H6   30   0.188  -0.180   0.056
    1UNL     H7   31   0.455  -0.126  -0.088
    1UNL     H8   32   0.434  -0.273   0.010
    1UNL     H9   33   0.230  -0.308  -0.099
    1UNL    H10   34   0.451  -0.101   0.156
    1UNL    H11   35   0.340  -0.174   0.366
    1UNL    H12   36   0.324   0.055   0.337
    1UNL    H13   37   0.378   0.147   0.068
    1UNL    H14   38   0.115   0.176   0.223
    1UNL    H15   39   0.131  -0.095   0.283
    1UNL    H16   40  -0.004  -0.111  -0.176
    1UNL    H17   41  -0.268  -0.236  -0.288
    1UNL    H18   42  -0.198  -0.277  -0.124
    1UNL    H19   43  -0.116  -0.310  -0.277
    1UNL    H20   44  -0.019   0.058  -0.326
    1UNL    H21   45  -0.193   0.003  -0.369
    1UNL    H22   46  -0.054  -0.062  -0.433
    1UNL    H23   47  -0.473  -0.008  -0.201
    1UNL    H24   48  -0.548   0.199  -0.002
   0.00000   0.00000   0.00000   0.00000   0.00000   0.00000   0.00000   0.00000   0.00000
Generated with MDTraj, t= 94.0
 48
    1UNL     C1    1  -0.358   0.268   0.168
    1UNL     C2    2  -0.297   0.183   0.064
    1UNL     C3    3  -0.167   0.134   0.088
    1UNL     C4    4  -0.111   0.035   0.004
    1UNL     O1    5   0.017  -0.029   0.022
    1UNL     C5    6   0.133   0.055   0.041
    1UNL     O2    7   0.241  -0.012  -0.018
    1UNL     C6    8   0.282  -0.125   0.057
    1UNL     C7    9   0.368  -0.216  -0.029
    1UNL     O3   10   0.312  -0.251  -0.157
    1UNL     C8   11   0.361  -0.088   0.190
    1UNL     O4   12   0.316  -0.183   0.287
    1UNL     C9   13   0.324   0.058   0.220
    1UNL     O5   14   0.416   0.142   0.145
    1UNL    C10   15   0.176   0.090   0.193
    1UNL     O6   16   0.096   0.012   0.284
    1UNL    C11   17  -0.177  -0.005  -0.107
    1UNL    C12   18  -0.121  -0.114  -0.199
    1UNL    C13   19  -0.227  -0.211  -0.239
    1UNL    C14   20  -0.047  -0.051  -0.319
    1UNL    C15   21  -0.304   0.046  -0.132
    1UNL     O7   22  -0.372   0.008  -0.242
    1UNL    C16   23  -0.373   0.135  -0.044
    1UNL     O8   24  -0.509   0.154  -0.075
    1UNL     H1   25  -0.447   0.219   0.214
    1UNL     H2   26  -0.292   0.300   0.250
    1UNL     H3   27  -0.391   0.363   0.119
    1UNL     H4   28  -0.101   0.155   0.172
    1UNL     H5   29   0.120   0.155  -0.012
    1UNL     H6   30   0.194  -0.181   0.094
    1UNL     H7   31   0.460  -0.160  -0.048
    1UNL     H8   32   0.397  -0.306   0.028
    1UNL     H9   33   0.211  -0.260  -0.162
    1UNL    H10   34   0.467  -0.092   0.178
    1UNL    H11   35   0.322  -0.141   0.375
    1UNL    H12   36   0.353   0.080   0.320
    1UNL    H13   37   0.405   0.122   0.052
    1UNL    H14   38   0.165   0.201   0.206
    1UNL    H15   39   0.123  -0.080   0.267
    1UNL    H16   40  -0.034  -0.156  -0.145
    1UNL    H17   41  -0.305  -0.167  -0.307
    1UNL    H18   42  -0.269  -0.258  -0.156
    1UNL    H19   43  -0.196  -0.292  -0.308
    1UNL    H20   44   0.022   0.033  -0.285
    1UNL    H21   45  -0.121  -0.017  -0.385
    1UNL    H22   46   0.014  -0.111  -0.379
    1UNL    H23   47  -0.449   0.074  -0.257
    1UNL    H24   48  -0.546   0.210  -0.011
   0.00000   0.00000   0.00000   0.00000   0.00000   0.00000   0.00000   0.00000   0.00000
Generated with MDTraj, t= 95.0
 48
    1UNL     C1    1  -0.352   0.237   0.202
    1UNL     C2    2  -0.289   0.148   0.092
    1UNL     C3    3  -0.174   0.083   0.126
    1UNL     C4    4  -0.113  -0.002   0.030
    1UNL     O1    5   0.016  -0.064   0.037
    1UNL     C5    6   0.117   0.036   0.030
    1UNL     O2    7   0.235  -0.012  -0.029
    1UNL     C6    8   0.275  -0.130   0.044
    1UNL     C7    9   0.361  -0.223  -0.038
    1UNL     O3   10   0.307  -0.246  -0.168
    1UNL     C8   11   0.338  -0.083   0.185
    1UNL     O4   12   0.293  -0.165   0.292
    1UNL     C9   13   0.309   0.073   0.197
    1UNL     O5   14   0.403   0.151   0.118
    1UNL    C10   15   0.161   0.110   0.169
    1UNL     O6   16   0.071   0.074   0.284
    1UNL    C11   17  -0.175  -0.018  -0.099
    1UNL    C12   18  -0.109  -0.120  -0.187
    1UNL    C13   19  -0.216  -0.215  -0.250
    1UNL    C14   20  -0.015  -0.069  -0.297
    1UNL    C15   21  -0.294   0.052  -0.137
    1UNL     O7   22  -0.354   0.041  -0.260
    1UNL    C16   23  -0.353   0.131  -0.038
    1UNL     O8   24  -0.460   0.203  -0.082
    1UNL     H1   25  -0.461   0.205   0.219
    1UNL     H2   26  -0.298   0.231   0.294
    1UNL     H3   27  -0.346   0.343   0.167
    1UNL     H4   28  -0.135   0.110   0.222
    1UNL     H5   29   0.077   0.108  -0.046
    1UNL     H6   30   0.186  -0.188   0.067
    1UNL     H7   31   0.459  -0.175  -0.053
    1UNL     H8   32   0.370  -0.320   0.015
    1UNL     H9   33   0.267  -0.174  -0.212
    1UNL    H10   34   0.444  -0.095   0.183
    1UNL    H11   35   0.296  -0.115   0.377
    1UNL    H12   36   0.317   0.098   0.299
    1UNL    H13   37   0.372   0.126   0.025
    1UNL    H14   38   0.145   0.222   0.155
    1UNL    H15   39   0.079  -0.026   0.296
    1UNL    H16   40  -0.044  -0.178  -0.122
    1UNL    H17   41  -0.285  -0.157  -0.314
    1UNL    H18   42  -0.260  -0.273  -0.174
    1UNL    H19   43  -0.174  -0.282  -0.329
    1UNL    H20   44   0.065  -0.002  -0.251
    1UNL    H21   45  -0.071  -0.010  -0.366
    1UNL    H22   46   0.023  -0.150  -0.349
    1UNL    H23   47  -0.431   0.096  -0.262
    1UNL    H24   48  -0.492   0.262  -0.017
   0.00000   0.00000   0.00000   0.00000   0.00000   0.00000   0.00000   0.00000   0.00000
Generated with MDTraj, t= 96.0
 48
    1UNL     C1    1  -0.362   0.224   0.204
    1UNL     C2    2  -0.296   0.136   0.106
    1UNL     C3    3  -0.188   0.054   0.139
    1UNL     C4    4  -0.125  -0.028   0.048
    1UNL     O1    5   0.003  -0.083   0.072
    1UNL     C5    6   0.097   0.020   0.031
    1UNL     O2    7   0.209  -0.027  -0.042
    1UNL     C6    8   0.280  -0.128   0.031
    1UNL     C7    9   0.384  -0.197  -0.052
    1UNL     O3   10   0.320  -0.257  -0.160
    1UNL     C8   11   0.323  -0.076   0.180
    1UNL     O4   12   0.239  -0.123   0.283
    1UNL     C9   13   0.299   0.077   0.183
    1UNL     O5   14   0.386   0.136   0.087
    1UNL    C10   15   0.153   0.108   0.155
    1UNL     O6   16   0.088   0.085   0.277
    1UNL    C11   17  -0.170  -0.040  -0.086
    1UNL    C12   18  -0.099  -0.125  -0.184
    1UNL    C13   19  -0.204  -0.217  -0.258
    1UNL    C14   20  -0.032  -0.032  -0.282
    1UNL    C15   21  -0.274   0.042  -0.124
    1UNL     O7   22  -0.316   0.051  -0.249
    1UNL    C16   23  -0.332   0.137  -0.033
    1UNL     O8   24  -0.411   0.231  -0.091
    1UNL     H1   25  -0.476   0.214   0.187
    1UNL     H2   26  -0.343   0.203   0.309
    1UNL     H3   27  -0.325   0.326   0.183
    1UNL     H4   28  -0.147   0.059   0.238
    1UNL     H5   29   0.040   0.080  -0.040
    1UNL     H6   30   0.209  -0.205   0.054
    1UNL     H7   31   0.462  -0.122  -0.080
    1UNL     H8   32   0.422  -0.285   0.005
    1UNL     H9   33   0.300  -0.191  -0.238
    1UNL    H10   34   0.425  -0.104   0.190
    1UNL    H11   35   0.253  -0.075   0.367
    1UNL    H12   36   0.333   0.120   0.273
    1UNL    H13   37   0.367   0.102  -0.000
    1UNL    H14   38   0.149   0.218   0.125
    1UNL    H15   39   0.073  -0.009   0.282
    1UNL    H16   40  -0.032  -0.197  -0.142
    1UNL    H17   41  -0.246  -0.156  -0.337
    1UNL    H18   42  -0.267  -0.267  -0.186
    1UNL    H19   43  -0.146  -0.292  -0.317
    1UNL    H20   44   0.057   0.010  -0.227
    1UNL    H21   45  -0.087   0.057  -0.304
    1UNL    H22   46  -0.019  -0.092  -0.367
    1UNL    H23   47  -0.393   0.119  -0.256
    1UNL    H24   48  -0.424   0.298  -0.023
   0.00000   0.00000   0.00000   0.00000   0.00000   0.00000   0.00000   0.00000   0.00000
Generated with MDTraj, t= 97.0
 48
    1UNL     C1    1  -0.387   0.224   0.203
    1UNL     C2    2  -0.312   0.142   0.104
    1UNL     C3    3  -0.204   0.063   0.140
    1UNL     C4    4  -0.131  -0.013   0.048
    1UNL     O1    5  -0.006  -0.074   0.086
    1UNL     C5    6   0.099   0.003   0.032
    1UNL     O2    7   0.198  -0.063  -0.050
    1UNL     C6    8   0.273  -0.151   0.037
    1UNL     C7    9   0.396  -0.201  -0.035
    1UNL     O3   10   0.368  -0.245  -0.166
    1UNL     C8   11   0.319  -0.079   0.172
    1UNL     O4   12   0.263  -0.135   0.292
    1UNL     C9   13   0.306   0.073   0.168
    1UNL     O5   14   0.384   0.120   0.057
    1UNL    C10   15   0.158   0.098   0.151
    1UNL     O6   16   0.090   0.086   0.275
    1UNL    C11   17  -0.173  -0.017  -0.085
    1UNL    C12   18  -0.093  -0.099  -0.186
    1UNL    C13   19  -0.183  -0.217  -0.231
    1UNL    C14   20  -0.014  -0.030  -0.300
    1UNL    C15   21  -0.279   0.070  -0.121
    1UNL     O7   22  -0.311   0.074  -0.251
    1UNL    C16   23  -0.351   0.146  -0.024
    1UNL     O8   24  -0.449   0.217  -0.090
    1UNL     H1   25  -0.487   0.249   0.165
    1UNL     H2   26  -0.409   0.185   0.307
    1UNL     H3   27  -0.335   0.319   0.228
    1UNL     H4   28  -0.170   0.079   0.241
    1UNL     H5   29   0.044   0.065  -0.035
    1UNL     H6   30   0.201  -0.221   0.074
    1UNL     H7   31   0.463  -0.115  -0.057
    1UNL     H8   32   0.444  -0.282   0.022
    1UNL     H9   33   0.313  -0.330  -0.161
    1UNL    H10   34   0.427  -0.092   0.177
    1UNL    H11   35   0.308  -0.095   0.370
    1UNL    H12   36   0.337   0.112   0.259
    1UNL    H13   37   0.346   0.071  -0.023
    1UNL    H14   38   0.137   0.208   0.135
    1UNL    H15   39   0.086  -0.005   0.305
    1UNL    H16   40  -0.025  -0.152  -0.123
    1UNL    H17   41  -0.255  -0.179  -0.300
    1UNL    H18   42  -0.218  -0.279  -0.144
    1UNL    H19   43  -0.122  -0.282  -0.295
    1UNL    H20   44   0.019   0.065  -0.260
    1UNL    H21   45  -0.060  -0.004  -0.395
    1UNL    H22   46   0.059  -0.105  -0.325
    1UNL    H23   47  -0.380   0.138  -0.267
    1UNL    H24   48  -0.484   0.291  -0.033
   0.00000   0.00000   0.00000   0.00000   0.00000   0.00000   0.00000   0.00000   0.00000
Generated with MDTraj, t= 98.0
 48
    1UNL     C1    1  -0.421   0.208   0.196
    1UNL     C2    2  -0.331   0.144   0.099
    1UNL     C3    3  -0.205   0.086   0.132
    1UNL     C4    4  -0.129   0.012   0.043
    1UNL     O1    5  -0.003  -0.056   0.066
    1UNL     C5    6   0.114   0.017   0.038
    1UNL     O2    7   0.215  -0.068  -0.019
    1UNL     C6    8   0.287  -0.164   0.061
    1UNL     C7    9   0.407  -0.211  -0.022
    1UNL     O3   10   0.351  -0.264  -0.142
    1UNL     C8   11   0.349  -0.093   0.181
    1UNL     O4   12   0.276  -0.142   0.292
    1UNL     C9   13   0.334   0.065   0.166
    1UNL     O5   14   0.403   0.119   0.053
    1UNL    C10   15   0.175   0.093   0.160
    1UNL     O6   16   0.112   0.067   0.275
    1UNL    C11   17  -0.166   0.003  -0.091
    1UNL    C12   18  -0.091  -0.079  -0.194
    1UNL    C13   19  -0.184  -0.200  -0.225
    1UNL    C14   20  -0.054  -0.005  -0.320
    1UNL    C15   21  -0.288   0.067  -0.127
    1UNL     O7   22  -0.330   0.067  -0.255
    1UNL    C16   23  -0.371   0.139  -0.041
    1UNL     O8   24  -0.479   0.203  -0.095
    1UNL     H1   25  -0.506   0.144   0.212
    1UNL     H2   26  -0.369   0.235   0.296
    1UNL     H3   27  -0.453   0.307   0.159
    1UNL     H4   28  -0.165   0.091   0.232
    1UNL     H5   29   0.083   0.087  -0.035
    1UNL     H6   30   0.220  -0.246   0.084
    1UNL     H7   31   0.480  -0.134  -0.054
    1UNL     H8   32   0.455  -0.299   0.017
    1UNL     H9   33   0.311  -0.200  -0.195
    1UNL    H10   34   0.454  -0.129   0.182
    1UNL    H11   35   0.313  -0.104   0.374
    1UNL    H12   36   0.379   0.110   0.248
    1UNL    H13   37   0.359   0.088  -0.027
    1UNL    H14   38   0.164   0.201   0.143
    1UNL    H15   39   0.115  -0.034   0.289
    1UNL    H16   40  -0.006  -0.123  -0.146
    1UNL    H17   41  -0.284  -0.184  -0.259
    1UNL    H18   42  -0.183  -0.273  -0.138
    1UNL    H19   43  -0.147  -0.260  -0.307
    1UNL    H20   44   0.019   0.067  -0.316
    1UNL    H21   45  -0.136   0.056  -0.357
    1UNL    H22   46  -0.047  -0.080  -0.400
    1UNL    H23   47  -0.410   0.131  -0.254
    1UNL    H24   48  -0.542   0.240  -0.023
   0.00000   0.00000   0.00000   0.00000   0.00000   0.00000   0.00000   0.00000   0.00000
Generated with MDTraj, t= 99.0
 48
    1UNL     C1    1  -0.390   0.210   0.209
    1UNL     C2    2  -0.314   0.133   0.097
    1UNL     C3    3  -0.184   0.095   0.123
    1UNL     C4    4  -0.108   0.028   0.024
    1UNL     O1    5   0.010  -0.046   0.053
    1UNL     C5    6   0.130   0.032   0.034
    1UNL     O2    7   0.231  -0.048  -0.029
    1UNL     C6    8   0.271  -0.148   0.065
    1UNL     C7    9   0.357  -0.243  -0.010
    1UNL     O3   10   0.293  -0.279  -0.134
    1UNL     C8   11   0.346  -0.088   0.189
    1UNL     O4   12   0.289  -0.155   0.306
    1UNL     C9   13   0.344   0.064   0.186
    1UNL     O5   14   0.416   0.136   0.086
    1UNL    C10   15   0.189   0.100   0.166
    1UNL     O6   16   0.106   0.077   0.276
    1UNL    C11   17  -0.169   0.011  -0.110
    1UNL    C12   18  -0.092  -0.072  -0.213
    1UNL    C13   19  -0.160  -0.199  -0.249
    1UNL    C14   20  -0.068   0.015  -0.342
    1UNL    C15   21  -0.297   0.056  -0.140
    1UNL     O7   22  -0.352   0.055  -0.269
    1UNL    C16   23  -0.372   0.113  -0.030
    1UNL     O8   24  -0.495   0.166  -0.072
    1UNL     H1   25  -0.466   0.145   0.248
    1UNL     H2   26  -0.314   0.234   0.291
    1UNL     H3   27  -0.424   0.310   0.173
    1UNL     H4   28  -0.143   0.119   0.219
    1UNL     H5   29   0.097   0.107  -0.034
    1UNL     H6   30   0.182  -0.191   0.114
    1UNL     H7   31   0.450  -0.189  -0.037
    1UNL     H8   32   0.379  -0.332   0.044
    1UNL     H9   33   0.280  -0.187  -0.177
    1UNL    H10   34   0.453  -0.123   0.189
    1UNL    H11   35   0.344  -0.134   0.384
    1UNL    H12   36   0.374   0.099   0.279
    1UNL    H13   37   0.382   0.107  -0.005
    1UNL    H14   38   0.185   0.206   0.151
    1UNL    H15   39   0.081  -0.016   0.273
    1UNL    H16   40   0.003  -0.091  -0.166
    1UNL    H17   41  -0.248  -0.195  -0.310
    1UNL    H18   42  -0.183  -0.264  -0.159
    1UNL    H19   43  -0.099  -0.265  -0.308
    1UNL    H20   44  -0.038   0.110  -0.319
    1UNL    H21   45  -0.157   0.031  -0.397
    1UNL    H22   46  -0.003  -0.033  -0.418
    1UNL    H23   47  -0.441   0.090  -0.267
    1UNL    H24   48  -0.555   0.190   0.010
   0.00000   0.00000   0.00000   0.00000   0.00000   0.00000   0.00000   0.00000   0.00000
