1TPCN04739
46
    1res  C1    1    0.285  -0.560  -0.062
    1res  C2    2    0.352  -0.323   0.002
    1res  C3    3    0.353  -0.082  -0.027
    1res  C4    4    0.252   0.203  -0.145
    1res  C5    5    0.417   0.210   0.100
    1res  C6    6    0.362   0.458  -0.036
    1res  C7    7    0.023  -0.026  -0.188
    1res  C8    8   -0.109   0.332  -0.073
    1res  C9    9   -0.221   0.095  -0.167
    1res  C10   10   -0.413   0.166   0.103
    1res  C11   11   -0.544   0.285  -0.106
    1res  C12   12   -0.728   0.185   0.040
    1res  C13   13   -0.976   0.253   0.083
    1res  C14   14   -1.138   0.556   0.042
    1res  C15   15   -1.231   0.296   0.213
    1res  C16   16   -1.165   0.090   0.212
    1res  C17   17   -1.302  -0.046   0.427
    1res  C18   18   -1.386  -0.253   0.527
    1res  C19   19   -1.501  -0.275   0.320
    1res  C20   20   -1.387  -0.165   0.166
    1res  C21   21   -1.033   0.035   0.060
    1res  C22   22   -1.128  -0.167  -0.129
    1res  C23   23   -1.360  -0.337  -0.156
    1res  C24   24   -1.272  -0.166  -0.401
    1res  C25   25   -1.109   0.006  -0.419
    1res  C26   26   -0.932  -0.084  -0.271
    1res  C27   27   -0.680  -0.080  -0.014
    1res  C28   28   -0.615  -0.006   0.243
    1res  C29   29   -0.309  -0.120  -0.000
    1res  C30   30    0.065  -0.011   0.110
    1res  C31   31    0.558  -0.260   0.071
    1res  C32   32    0.713  -0.135   0.035
    1res  C33   33    0.977  -0.317   0.076
    1res  C34   34    1.023  -0.169  -0.114
    1res  C35   35    1.302  -0.179  -0.229
    1res  C36   36    1.569  -0.131  -0.175
    1res  C37   37    1.443   0.013  -0.036
    1res  C38   38    1.516   0.256   0.178
    1res  C39   39    1.765   0.369   0.258
    1res  C40   40    1.839   0.231   0.065
    1res  C41   41    1.721   0.050   0.136
    1res  C42   42    1.252   0.094  -0.165
    1res  C43   43    0.893   0.034  -0.137
    1res  C44   44    0.691  -0.118  -0.213
    1res  C45   45    0.616  -0.430   0.194
    1res  C46   46    0.525  -0.558  -0.004
  10.00000  10.00000  10.00000
