Generated with MDTraj, t= 0.0
 69
    1UNL     O1    1  -0.118  -0.017  -0.087
    1UNL     C1    2  -0.117   0.006   0.030
    1UNL     C2    3  -0.122  -0.099   0.137
    1UNL     C3    4  -0.251  -0.176   0.125
    1UNL     C4    5  -0.370  -0.118   0.112
    1UNL     O2    6  -0.391   0.018   0.106
    1UNL     C5    7  -0.527   0.052   0.086
    1UNL     O3    8  -0.549   0.194   0.073
    1UNL     C6    9  -0.531   0.245  -0.060
    1UNL     C7   10  -0.393   0.214  -0.119
    1UNL     O4   11  -0.379   0.081  -0.162
    1UNL     C8   12  -0.647   0.194  -0.153
    1UNL     O5   13  -0.606   0.185  -0.288
    1UNL     C9   14  -0.704   0.059  -0.098
    1UNL     O6   15  -0.804   0.084  -0.002
    1UNL    C10   16  -0.594  -0.026  -0.031
    1UNL     O7   17  -0.651  -0.146   0.016
    1UNL    C11   18   0.000  -0.194   0.118
    1UNL    C12   19   0.135  -0.117   0.125
    1UNL    C13   20   0.131   0.005   0.221
    1UNL    C14   21   0.271   0.040   0.274
    1UNL     O8   22   0.360   0.077   0.171
    1UNL    C15   23   0.430  -0.031   0.125
    1UNL     O9   24   0.419  -0.144   0.169
    1UNL    C16   25   0.522  -0.005   0.015
    1UNL    C17   26   0.594  -0.103  -0.041
    1UNL    C18   27   0.686  -0.088  -0.152
    1UNL    C19   28   0.752  -0.200  -0.202
    1UNL    C20   29   0.840  -0.189  -0.307
    1UNL    C21   30   0.864  -0.067  -0.367
    1UNL    O10   31   0.951  -0.052  -0.472
    1UNL    C22   32   0.798   0.049  -0.318
    1UNL    O11   33   0.826   0.169  -0.380
    1UNL    C23   34   0.711   0.036  -0.212
    1UNL    C24   35   0.030  -0.018   0.335
    1UNL    C25   36  -0.115  -0.033   0.282
    1UNL    O12   37  -0.182   0.092   0.284
    1UNL     H1   38  -0.114   0.110   0.059
    1UNL     H2   39  -0.244  -0.284   0.128
    1UNL     H3   40  -0.459  -0.180   0.103
    1UNL     H4   41  -0.578   0.024   0.180
    1UNL     H5   42  -0.540   0.354  -0.049
    1UNL     H6   43  -0.374   0.277  -0.207
    1UNL     H7   44  -0.316   0.237  -0.044
    1UNL     H8   45  -0.288   0.045  -0.141
    1UNL     H9   46  -0.729   0.268  -0.150
    1UNL    H10   47  -0.676   0.143  -0.343
    1UNL    H11   48  -0.751   0.002  -0.179
    1UNL    H12   49  -0.766   0.142   0.068
    1UNL    H13   50  -0.516  -0.053  -0.104
    1UNL    H14   51  -0.740  -0.124   0.053
    1UNL    H15   52  -0.003  -0.272   0.194
    1UNL    H16   53  -0.010  -0.244   0.022
    1UNL    H17   54   0.164  -0.084   0.025
    1UNL    H18   55   0.215  -0.185   0.157
    1UNL    H19   56   0.097   0.092   0.164
    1UNL    H20   57   0.315  -0.045   0.328
    1UNL    H21   58   0.266   0.124   0.344
    1UNL    H22   59   0.529   0.096  -0.020
    1UNL    H23   60   0.581  -0.201  -0.000
    1UNL    H24   61   0.734  -0.296  -0.157
    1UNL    H25   62   0.890  -0.276  -0.346
    1UNL    H26   63   0.952   0.043  -0.497
    1UNL    H27   64   0.775   0.241  -0.338
    1UNL    H28   65   0.661   0.124  -0.175
    1UNL    H29   66   0.033   0.065   0.406
    1UNL    H30   67   0.060  -0.107   0.392
    1UNL    H31   68  -0.171  -0.098   0.350
    1UNL    H32   69  -0.264   0.083   0.230
   0.00000   0.00000   0.00000   0.00000   0.00000   0.00000   0.00000   0.00000   0.00000
Generated with MDTraj, t= 1.0
 69
    1UNL     O1    1  -0.131  -0.040  -0.071
    1UNL     C1    2  -0.126  -0.003   0.045
    1UNL     C2    3  -0.137  -0.107   0.151
    1UNL     C3    4  -0.266  -0.176   0.143
    1UNL     C4    5  -0.383  -0.120   0.122
    1UNL     O2    6  -0.393   0.016   0.101
    1UNL     C5    7  -0.523   0.061   0.082
    1UNL     O3    8  -0.531   0.200   0.074
    1UNL     C6    9  -0.522   0.247  -0.064
    1UNL     C7   10  -0.380   0.228  -0.120
    1UNL     O4   11  -0.354   0.098  -0.173
    1UNL     C8   12  -0.641   0.192  -0.157
    1UNL     O5   13  -0.605   0.167  -0.293
    1UNL     C9   14  -0.702   0.065  -0.095
    1UNL     O6   15  -0.803   0.089   0.006
    1UNL    C10   16  -0.587  -0.022  -0.032
    1UNL     O7   17  -0.645  -0.143   0.020
    1UNL    C11   18  -0.013  -0.202   0.131
    1UNL    C12   19   0.127  -0.125   0.123
    1UNL    C13   20   0.134   0.006   0.216
    1UNL    C14   21   0.266   0.051   0.267
    1UNL     O8   22   0.360   0.073   0.163
    1UNL    C15   23   0.416  -0.035   0.103
    1UNL     O9   24   0.388  -0.149   0.136
    1UNL    C16   25   0.518  -0.002  -0.000
    1UNL    C17   26   0.592  -0.106  -0.044
    1UNL    C18   27   0.697  -0.084  -0.145
    1UNL    C19   28   0.770  -0.196  -0.196
    1UNL    C20   29   0.853  -0.181  -0.301
    1UNL    C21   30   0.867  -0.065  -0.369
    1UNL    O10   31   0.948  -0.049  -0.478
    1UNL    C22   32   0.797   0.050  -0.321
    1UNL    O11   33   0.827   0.174  -0.382
    1UNL    C23   34   0.722   0.042  -0.207
    1UNL    C24   35   0.033  -0.006   0.331
    1UNL    C25   36  -0.120  -0.041   0.289
    1UNL    O12   37  -0.201   0.084   0.310
    1UNL     H1   38  -0.114   0.098   0.068
    1UNL     H2   39  -0.261  -0.288   0.130
    1UNL     H3   40  -0.472  -0.175   0.110
    1UNL     H4   41  -0.584   0.035   0.168
    1UNL     H5   42  -0.545   0.356  -0.038
    1UNL     H6   43  -0.374   0.294  -0.204
    1UNL     H7   44  -0.300   0.261  -0.051
    1UNL     H8   45  -0.262   0.066  -0.154
    1UNL     H9   46  -0.719   0.265  -0.147
    1UNL    H10   47  -0.677   0.127  -0.338
    1UNL    H11   48  -0.747   0.014  -0.180
    1UNL    H12   49  -0.759   0.057   0.090
    1UNL    H13   50  -0.516  -0.057  -0.107
    1UNL    H14   51  -0.662  -0.211  -0.050
    1UNL    H15   52  -0.002  -0.282   0.207
    1UNL    H16   53  -0.016  -0.247   0.037
    1UNL    H17   54   0.143  -0.101   0.017
    1UNL    H18   55   0.197  -0.209   0.153
    1UNL    H19   56   0.092   0.072   0.140
    1UNL    H20   57   0.309  -0.039   0.324
    1UNL    H21   58   0.256   0.148   0.322
    1UNL    H22   59   0.522   0.094  -0.036
    1UNL    H23   60   0.598  -0.192   0.024
    1UNL    H24   61   0.747  -0.293  -0.143
    1UNL    H25   62   0.911  -0.268  -0.323
    1UNL    H26   63   0.942   0.049  -0.508
    1UNL    H27   64   0.872   0.240  -0.319
    1UNL    H28   65   0.687   0.125  -0.164
    1UNL    H29   66   0.029   0.095   0.372
    1UNL    H30   67   0.071  -0.073   0.406
    1UNL    H31   68  -0.159  -0.118   0.359
    1UNL    H32   69  -0.272   0.089   0.244
   0.00000   0.00000   0.00000   0.00000   0.00000   0.00000   0.00000   0.00000   0.00000
Generated with MDTraj, t= 2.0
 69
    1UNL     O1    1  -0.106  -0.035  -0.055
    1UNL     C1    2  -0.131  -0.005   0.055
    1UNL     C2    3  -0.143  -0.108   0.166
    1UNL     C3    4  -0.270  -0.181   0.160
    1UNL     C4    5  -0.389  -0.129   0.143
    1UNL     O2    6  -0.399   0.005   0.108
    1UNL     C5    7  -0.534   0.055   0.080
    1UNL     O3    8  -0.533   0.200   0.066
    1UNL     C6    9  -0.518   0.248  -0.071
    1UNL     C7   10  -0.389   0.208  -0.141
    1UNL     O4   11  -0.383   0.072  -0.159
    1UNL     C8   12  -0.641   0.207  -0.152
    1UNL     O5   13  -0.608   0.210  -0.290
    1UNL     C9   14  -0.700   0.071  -0.107
    1UNL     O6   15  -0.819   0.094  -0.035
    1UNL    C10   16  -0.594  -0.020  -0.034
    1UNL     O7   17  -0.650  -0.135   0.021
    1UNL    C11   18  -0.023  -0.211   0.144
    1UNL    C12   19   0.113  -0.134   0.141
    1UNL    C13   20   0.124  -0.011   0.235
    1UNL    C14   21   0.267   0.039   0.253
    1UNL     O8   22   0.340   0.062   0.133
    1UNL    C15   23   0.429  -0.034   0.103
    1UNL     O9   24   0.432  -0.143   0.153
    1UNL    C16   25   0.514  -0.004  -0.009
    1UNL    C17   26   0.600  -0.098  -0.057
    1UNL    C18   27   0.698  -0.081  -0.157
    1UNL    C19   28   0.764  -0.191  -0.205
    1UNL    C20   29   0.856  -0.184  -0.310
    1UNL    C21   30   0.885  -0.056  -0.369
    1UNL    O10   31   0.974  -0.040  -0.468
    1UNL    C22   32   0.815   0.056  -0.323
    1UNL    O11   33   0.834   0.173  -0.395
    1UNL    C23   34   0.726   0.041  -0.217
    1UNL    C24   35   0.028  -0.016   0.354
    1UNL    C25   36  -0.120  -0.031   0.305
    1UNL    O12   37  -0.185   0.093   0.308
    1UNL     H1   38  -0.164   0.104   0.070
    1UNL     H2   39  -0.273  -0.277   0.191
    1UNL     H3   40  -0.492  -0.181   0.162
    1UNL     H4   41  -0.580   0.049   0.178
    1UNL     H5   42  -0.524   0.366  -0.067
    1UNL     H6   43  -0.360   0.257  -0.234
    1UNL     H7   44  -0.307   0.239  -0.077
    1UNL     H8   45  -0.292   0.033  -0.140
    1UNL     H9   46  -0.718   0.279  -0.134
    1UNL    H10   47  -0.658   0.157  -0.345
    1UNL    H11   48  -0.730   0.026  -0.201
    1UNL    H12   49  -0.838   0.014   0.024
    1UNL    H13   50  -0.507  -0.042  -0.098
    1UNL    H14   51  -0.714  -0.176  -0.043
    1UNL    H15   52  -0.014  -0.292   0.222
    1UNL    H16   53  -0.030  -0.260   0.054
    1UNL    H17   54   0.145  -0.110   0.037
    1UNL    H18   55   0.191  -0.203   0.191
    1UNL    H19   56   0.081   0.065   0.166
    1UNL    H20   57   0.338  -0.033   0.310
    1UNL    H21   58   0.257   0.146   0.289
    1UNL    H22   59   0.527   0.104  -0.044
    1UNL    H23   60   0.604  -0.194  -0.013
    1UNL    H24   61   0.744  -0.285  -0.176
    1UNL    H25   62   0.905  -0.265  -0.367
    1UNL    H26   63   0.971   0.049  -0.497
    1UNL    H27   64   0.763   0.234  -0.357
    1UNL    H28   65   0.673   0.135  -0.179
    1UNL    H29   66   0.060   0.063   0.422
    1UNL    H30   67   0.052  -0.115   0.389
    1UNL    H31   68  -0.172  -0.090   0.385
    1UNL    H32   69  -0.268   0.076   0.255
   0.00000   0.00000   0.00000   0.00000   0.00000   0.00000   0.00000   0.00000   0.00000
Generated with MDTraj, t= 3.0
 69
    1UNL     O1    1  -0.128  -0.050  -0.064
    1UNL     C1    2  -0.123  -0.016   0.051
    1UNL     C2    3  -0.145  -0.106   0.173
    1UNL     C3    4  -0.272  -0.177   0.166
    1UNL     C4    5  -0.394  -0.117   0.151
    1UNL     O2    6  -0.409   0.021   0.135
    1UNL     C5    7  -0.536   0.071   0.090
    1UNL     O3    8  -0.533   0.216   0.064
    1UNL     C6    9  -0.508   0.250  -0.072
    1UNL     C7   10  -0.377   0.187  -0.126
    1UNL     O4   11  -0.382   0.055  -0.163
    1UNL     C8   12  -0.636   0.211  -0.152
    1UNL     O5   13  -0.632   0.244  -0.294
    1UNL     C9   14  -0.690   0.062  -0.127
    1UNL     O6   15  -0.817   0.063  -0.075
    1UNL    C10   16  -0.599  -0.021  -0.023
    1UNL     O7   17  -0.663  -0.129   0.040
    1UNL    C11   18  -0.029  -0.210   0.161
    1UNL    C12   19   0.115  -0.149   0.140
    1UNL    C13   20   0.123  -0.010   0.217
    1UNL    C14   21   0.267   0.029   0.253
    1UNL     O8   22   0.351   0.061   0.138
    1UNL    C15   23   0.441  -0.034   0.104
    1UNL     O9   24   0.449  -0.134   0.167
    1UNL    C16   25   0.508  -0.015  -0.017
    1UNL    C17   26   0.602  -0.097  -0.061
    1UNL    C18   27   0.687  -0.079  -0.178
    1UNL    C19   28   0.778  -0.186  -0.210
    1UNL    C20   29   0.870  -0.180  -0.309
    1UNL    C21   30   0.890  -0.056  -0.365
    1UNL    O10   31   0.986  -0.032  -0.462
    1UNL    C22   32   0.810   0.055  -0.328
    1UNL    O11   33   0.845   0.177  -0.383
    1UNL    C23   34   0.704   0.039  -0.246
    1UNL    C24   35   0.032  -0.021   0.348
    1UNL    C25   36  -0.122  -0.040   0.310
    1UNL    O12   37  -0.190   0.089   0.304
    1UNL     H1   38  -0.088   0.079   0.073
    1UNL     H2   39  -0.284  -0.287   0.189
    1UNL     H3   40  -0.484  -0.166   0.150
    1UNL     H4   41  -0.613   0.064   0.164
    1UNL     H5   42  -0.504   0.367  -0.078
    1UNL     H6   43  -0.335   0.238  -0.214
    1UNL     H7   44  -0.294   0.199  -0.057
    1UNL     H8   45  -0.293   0.018  -0.142
    1UNL     H9   46  -0.716   0.266  -0.112
    1UNL    H10   47  -0.700   0.199  -0.337
    1UNL    H11   48  -0.696   0.008  -0.221
    1UNL    H12   49  -0.821   0.124   0.002
    1UNL    H13   50  -0.520  -0.072  -0.081
    1UNL    H14   51  -0.761  -0.123   0.036
    1UNL    H15   52  -0.034  -0.278   0.248
    1UNL    H16   53  -0.054  -0.274   0.083
    1UNL    H17   54   0.146  -0.116   0.035
    1UNL    H18   55   0.199  -0.212   0.185
    1UNL    H19   56   0.085   0.081   0.165
    1UNL    H20   57   0.322  -0.063   0.291
    1UNL    H21   58   0.270   0.121   0.314
    1UNL    H22   59   0.496   0.084  -0.057
    1UNL    H23   60   0.615  -0.192  -0.008
    1UNL    H24   61   0.749  -0.278  -0.149
    1UNL    H25   62   0.913  -0.267  -0.344
    1UNL    H26   63   0.988   0.071  -0.478
    1UNL    H27   64   0.771   0.240  -0.381
    1UNL    H28   65   0.637   0.127  -0.224
    1UNL    H29   66   0.039   0.073   0.402
    1UNL    H30   67   0.086  -0.095   0.405
    1UNL    H31   68  -0.173  -0.093   0.394
    1UNL    H32   69  -0.275   0.070   0.257
   0.00000   0.00000   0.00000   0.00000   0.00000   0.00000   0.00000   0.00000   0.00000
Generated with MDTraj, t= 4.0
 69
    1UNL     O1    1  -0.147  -0.056  -0.072
    1UNL     C1    2  -0.129  -0.022   0.043
    1UNL     C2    3  -0.141  -0.108   0.165
    1UNL     C3    4  -0.277  -0.172   0.187
    1UNL     C4    5  -0.397  -0.112   0.157
    1UNL     O2    6  -0.395   0.022   0.122
    1UNL     C5    7  -0.524   0.073   0.103
    1UNL     O3    8  -0.512   0.211   0.066
    1UNL     C6    9  -0.514   0.254  -0.064
    1UNL     C7   10  -0.382   0.213  -0.132
    1UNL     O4   11  -0.384   0.075  -0.156
    1UNL     C8   12  -0.640   0.205  -0.146
    1UNL     O5   13  -0.613   0.229  -0.281
    1UNL     C9   14  -0.677   0.052  -0.122
    1UNL     O6   15  -0.815   0.040  -0.095
    1UNL    C10   16  -0.593  -0.019  -0.002
    1UNL     O7   17  -0.668  -0.120   0.060
    1UNL    C11   18  -0.031  -0.212   0.142
    1UNL    C12   19   0.107  -0.154   0.143
    1UNL    C13   20   0.121  -0.010   0.210
    1UNL    C14   21   0.267   0.030   0.252
    1UNL     O8   22   0.345   0.061   0.136
    1UNL    C15   23   0.420  -0.050   0.101
    1UNL     O9   24   0.420  -0.158   0.159
    1UNL    C16   25   0.518  -0.011  -0.006
    1UNL    C17   26   0.593  -0.109  -0.058
    1UNL    C18   27   0.698  -0.085  -0.164
    1UNL    C19   28   0.778  -0.190  -0.207
    1UNL    C20   29   0.874  -0.171  -0.302
    1UNL    C21   30   0.892  -0.048  -0.366
    1UNL    O10   31   0.990  -0.025  -0.459
    1UNL    C22   32   0.809   0.063  -0.328
    1UNL    O11   33   0.830   0.184  -0.399
    1UNL    C23   34   0.720   0.045  -0.222
    1UNL    C24   35   0.033  -0.019   0.332
    1UNL    C25   36  -0.115  -0.027   0.298
    1UNL    O12   37  -0.181   0.105   0.290
    1UNL     H1   38  -0.106   0.085   0.050
    1UNL     H2   39  -0.287  -0.267   0.228
    1UNL     H3   40  -0.493  -0.165   0.165
    1UNL     H4   41  -0.574   0.062   0.197
    1UNL     H5   42  -0.536   0.364  -0.048
    1UNL     H6   43  -0.377   0.257  -0.234
    1UNL     H7   44  -0.291   0.245  -0.083
    1UNL     H8   45  -0.308   0.026  -0.112
    1UNL     H9   46  -0.724   0.261  -0.121
    1UNL    H10   47  -0.687   0.203  -0.337
    1UNL    H11   48  -0.644  -0.002  -0.212
    1UNL    H12   49  -0.865   0.016  -0.172
    1UNL    H13   50  -0.506  -0.071  -0.048
    1UNL    H14   51  -0.764  -0.096   0.056
    1UNL    H15   52  -0.040  -0.290   0.216
    1UNL    H16   53  -0.054  -0.266   0.053
    1UNL    H17   54   0.145  -0.140   0.033
    1UNL    H18   55   0.182  -0.218   0.202
    1UNL    H19   56   0.075   0.081   0.159
    1UNL    H20   57   0.301  -0.063   0.304
    1UNL    H21   58   0.264   0.123   0.308
    1UNL    H22   59   0.535   0.086  -0.038
    1UNL    H23   60   0.589  -0.205  -0.014
    1UNL    H24   61   0.761  -0.285  -0.161
    1UNL    H25   62   0.934  -0.261  -0.333
    1UNL    H26   63   0.984   0.067  -0.484
    1UNL    H27   64   0.754   0.206  -0.452
    1UNL    H28   65   0.680   0.126  -0.182
    1UNL    H29   66   0.055   0.064   0.399
    1UNL    H30   67   0.053  -0.107   0.388
    1UNL    H31   68  -0.172  -0.072   0.380
    1UNL    H32   69  -0.257   0.098   0.226
   0.00000   0.00000   0.00000   0.00000   0.00000   0.00000   0.00000   0.00000   0.00000
Generated with MDTraj, t= 5.0
 69
    1UNL     O1    1  -0.131  -0.081  -0.069
    1UNL     C1    2  -0.120  -0.024   0.034
    1UNL     C2    3  -0.130  -0.100   0.163
    1UNL     C3    4  -0.274  -0.167   0.173
    1UNL     C4    5  -0.393  -0.106   0.156
    1UNL     O2    6  -0.403   0.032   0.141
    1UNL     C5    7  -0.536   0.081   0.108
    1UNL     O3    8  -0.537   0.224   0.076
    1UNL     C6    9  -0.517   0.252  -0.063
    1UNL     C7   10  -0.385   0.199  -0.124
    1UNL     O4   11  -0.393   0.067  -0.176
    1UNL     C8   12  -0.640   0.204  -0.147
    1UNL     O5   13  -0.634   0.243  -0.279
    1UNL     C9   14  -0.678   0.053  -0.121
    1UNL     O6   15  -0.818   0.023  -0.105
    1UNL    C10   16  -0.595  -0.016  -0.008
    1UNL     O7   17  -0.665  -0.126   0.051
    1UNL    C11   18  -0.019  -0.208   0.150
    1UNL    C12   19   0.115  -0.135   0.132
    1UNL    C13   20   0.130  -0.006   0.224
    1UNL    C14   21   0.282   0.011   0.259
    1UNL     O8   22   0.357   0.060   0.152
    1UNL    C15   23   0.412  -0.051   0.083
    1UNL     O9   24   0.401  -0.169   0.115
    1UNL    C16   25   0.515  -0.018  -0.020
    1UNL    C17   26   0.599  -0.117  -0.059
    1UNL    C18   27   0.704  -0.090  -0.155
    1UNL    C19   28   0.799  -0.187  -0.188
    1UNL    C20   29   0.889  -0.170  -0.292
    1UNL    C21   30   0.887  -0.047  -0.361
    1UNL    O10   31   0.976  -0.022  -0.463
    1UNL    C22   32   0.796   0.056  -0.323
    1UNL    O11   33   0.812   0.179  -0.385
    1UNL    C23   34   0.709   0.035  -0.219
    1UNL    C24   35   0.035  -0.010   0.348
    1UNL    C25   36  -0.108  -0.012   0.295
    1UNL    O12   37  -0.156   0.119   0.279
    1UNL     H1   38  -0.077   0.079   0.035
    1UNL     H2   39  -0.275  -0.277   0.177
    1UNL     H3   40  -0.495  -0.162   0.154
    1UNL     H4   41  -0.585   0.064   0.201
    1UNL     H5   42  -0.534   0.360  -0.061
    1UNL     H6   43  -0.344   0.269  -0.199
    1UNL     H7   44  -0.311   0.196  -0.044
    1UNL     H8   45  -0.322   0.012  -0.136
    1UNL     H9   46  -0.724   0.252  -0.108
    1UNL    H10   47  -0.723   0.224  -0.321
    1UNL    H11   48  -0.647  -0.005  -0.210
    1UNL    H12   49  -0.881   0.069  -0.165
    1UNL    H13   50  -0.505  -0.059  -0.059
    1UNL    H14   51  -0.760  -0.109   0.036
    1UNL    H15   52  -0.011  -0.269   0.232
    1UNL    H16   53  -0.042  -0.279   0.072
    1UNL    H17   54   0.133  -0.106   0.019
    1UNL    H18   55   0.197  -0.211   0.158
    1UNL    H19   56   0.106   0.092   0.169
    1UNL    H20   57   0.321  -0.078   0.311
    1UNL    H21   58   0.267   0.103   0.314
    1UNL    H22   59   0.527   0.082  -0.072
    1UNL    H23   60   0.602  -0.218  -0.014
    1UNL    H24   61   0.803  -0.282  -0.146
    1UNL    H25   62   0.963  -0.236  -0.324
    1UNL    H26   63   0.966   0.074  -0.489
    1UNL    H27   64   0.810   0.245  -0.312
    1UNL    H28   65   0.646   0.119  -0.189
    1UNL    H29   66   0.040   0.075   0.416
    1UNL    H30   67   0.057  -0.096   0.408
    1UNL    H31   68  -0.178  -0.053   0.367
    1UNL    H32   69  -0.247   0.113   0.245
   0.00000   0.00000   0.00000   0.00000   0.00000   0.00000   0.00000   0.00000   0.00000
Generated with MDTraj, t= 6.0
 69
    1UNL     O1    1  -0.143  -0.039  -0.070
    1UNL     C1    2  -0.133  -0.008   0.044
    1UNL     C2    3  -0.133  -0.098   0.163
    1UNL     C3    4  -0.269  -0.172   0.175
    1UNL     C4    5  -0.382  -0.106   0.172
    1UNL     O2    6  -0.400   0.022   0.122
    1UNL     C5    7  -0.534   0.067   0.096
    1UNL     O3    8  -0.539   0.211   0.071
    1UNL     C6    9  -0.522   0.257  -0.062
    1UNL     C7   10  -0.392   0.202  -0.124
    1UNL     O4   11  -0.387   0.068  -0.143
    1UNL     C8   12  -0.653   0.208  -0.144
    1UNL     O5   13  -0.648   0.249  -0.277
    1UNL     C9   14  -0.671   0.046  -0.125
    1UNL     O6   15  -0.808   0.020  -0.094
    1UNL    C10   16  -0.591  -0.028  -0.014
    1UNL     O7   17  -0.666  -0.131   0.045
    1UNL    C11   18  -0.027  -0.209   0.138
    1UNL    C12   19   0.123  -0.155   0.146
    1UNL    C13   20   0.128  -0.004   0.217
    1UNL    C14   21   0.274   0.008   0.268
    1UNL     O8   22   0.373   0.043   0.174
    1UNL    C15   23   0.425  -0.068   0.102
    1UNL     O9   24   0.387  -0.181   0.126
    1UNL    C16   25   0.521  -0.030  -0.002
    1UNL    C17   26   0.603  -0.120  -0.058
    1UNL    C18   27   0.703  -0.084  -0.162
    1UNL    C19   28   0.796  -0.186  -0.198
    1UNL    C20   29   0.883  -0.166  -0.300
    1UNL    C21   30   0.895  -0.047  -0.361
    1UNL    O10   31   0.995  -0.017  -0.451
    1UNL    C22   32   0.808   0.059  -0.326
    1UNL    O11   33   0.811   0.178  -0.407
    1UNL    C23   34   0.711   0.033  -0.232
    1UNL    C24   35   0.034   0.010   0.329
    1UNL    C25   36  -0.114   0.001   0.285
    1UNL    O12   37  -0.163   0.135   0.257
    1UNL     H1   38  -0.102   0.089   0.061
    1UNL     H2   39  -0.257  -0.270   0.214
    1UNL     H3   40  -0.468  -0.161   0.185
    1UNL     H4   41  -0.602   0.051   0.175
    1UNL     H5   42  -0.527   0.362  -0.053
    1UNL     H6   43  -0.357   0.250  -0.220
    1UNL     H7   44  -0.311   0.236  -0.061
    1UNL     H8   45  -0.305   0.025  -0.109
    1UNL     H9   46  -0.738   0.255  -0.105
    1UNL    H10   47  -0.735   0.226  -0.332
    1UNL    H11   48  -0.643   0.003  -0.224
    1UNL    H12   49  -0.864   0.100  -0.124
    1UNL    H13   50  -0.511  -0.086  -0.067
    1UNL    H14   51  -0.758  -0.097   0.054
    1UNL    H15   52  -0.042  -0.279   0.211
    1UNL    H16   53  -0.046  -0.270   0.050
    1UNL    H17   54   0.154  -0.149   0.032
    1UNL    H18   55   0.201  -0.235   0.181
    1UNL    H19   56   0.122   0.077   0.139
    1UNL    H20   57   0.311  -0.086   0.305
    1UNL    H21   58   0.263   0.087   0.344
    1UNL    H22   59   0.536   0.073  -0.023
    1UNL    H23   60   0.578  -0.222  -0.047
    1UNL    H24   61   0.779  -0.281  -0.134
    1UNL    H25   62   0.936  -0.255  -0.338
    1UNL    H26   63   0.973   0.075  -0.486
    1UNL    H27   64   0.785   0.259  -0.352
    1UNL    H28   65   0.625   0.112  -0.213
    1UNL    H29   66   0.044   0.115   0.358
    1UNL    H30   67   0.072  -0.040   0.418
    1UNL    H31   68  -0.178  -0.033   0.366
    1UNL    H32   69  -0.258   0.127   0.227
   0.00000   0.00000   0.00000   0.00000   0.00000   0.00000   0.00000   0.00000   0.00000
Generated with MDTraj, t= 7.0
 69
    1UNL     O1    1  -0.139  -0.067  -0.071
    1UNL     C1    2  -0.121  -0.018   0.039
    1UNL     C2    3  -0.132  -0.102   0.165
    1UNL     C3    4  -0.268  -0.172   0.154
    1UNL     C4    5  -0.378  -0.099   0.139
    1UNL     O2    6  -0.393   0.036   0.128
    1UNL     C5    7  -0.539   0.070   0.102
    1UNL     O3    8  -0.559   0.209   0.072
    1UNL     C6    9  -0.540   0.257  -0.064
    1UNL     C7   10  -0.404   0.220  -0.128
    1UNL     O4   11  -0.405   0.093  -0.184
    1UNL     C8   12  -0.665   0.207  -0.148
    1UNL     O5   13  -0.644   0.233  -0.283
    1UNL     C9   14  -0.686   0.054  -0.116
    1UNL     O6   15  -0.822   0.023  -0.080
    1UNL    C10   16  -0.592  -0.019  -0.010
    1UNL     O7   17  -0.661  -0.129   0.038
    1UNL    C11   18  -0.010  -0.199   0.159
    1UNL    C12   19   0.121  -0.126   0.131
    1UNL    C13   20   0.137   0.002   0.224
    1UNL    C14   21   0.290   0.010   0.272
    1UNL     O8   22   0.375   0.051   0.166
    1UNL    C15   23   0.439  -0.056   0.113
    1UNL     O9   24   0.428  -0.172   0.148
    1UNL    C16   25   0.528  -0.025   0.002
    1UNL    C17   26   0.592  -0.122  -0.074
    1UNL    C18   27   0.695  -0.100  -0.177
    1UNL    C19   28   0.794  -0.196  -0.203
    1UNL    C20   29   0.891  -0.173  -0.296
    1UNL    C21   30   0.898  -0.046  -0.360
    1UNL    O10   31   0.994  -0.016  -0.448
    1UNL    C22   32   0.800   0.051  -0.327
    1UNL    O11   33   0.809   0.180  -0.384
    1UNL    C23   34   0.700   0.023  -0.236
    1UNL    C24   35   0.037  -0.005   0.335
    1UNL    C25   36  -0.113  -0.015   0.295
    1UNL    O12   37  -0.168   0.113   0.289
    1UNL     H1   38  -0.098   0.093   0.038
    1UNL     H2   39  -0.258  -0.280   0.150
    1UNL     H3   40  -0.474  -0.149   0.155
    1UNL     H4   41  -0.579   0.060   0.198
    1UNL     H5   42  -0.549   0.360  -0.063
    1UNL     H6   43  -0.380   0.297  -0.209
    1UNL     H7   44  -0.316   0.237  -0.070
    1UNL     H8   45  -0.318   0.050  -0.160
    1UNL     H9   46  -0.756   0.252  -0.114
    1UNL    H10   47  -0.731   0.206  -0.340
    1UNL    H11   48  -0.669   0.007  -0.215
    1UNL    H12   49  -0.883   0.086  -0.127
    1UNL    H13   50  -0.504  -0.059  -0.065
    1UNL    H14   51  -0.751  -0.100   0.064
    1UNL    H15   52   0.004  -0.266   0.236
    1UNL    H16   53  -0.026  -0.278   0.085
    1UNL    H17   54   0.147  -0.109   0.019
    1UNL    H18   55   0.207  -0.202   0.157
    1UNL    H19   56   0.110   0.078   0.149
    1UNL    H20   57   0.308  -0.089   0.315
    1UNL    H21   58   0.300   0.080   0.361
    1UNL    H22   59   0.562   0.074  -0.016
    1UNL    H23   60   0.555  -0.227  -0.071
    1UNL    H24   61   0.797  -0.288  -0.160
    1UNL    H25   62   0.964  -0.250  -0.315
    1UNL    H26   63   0.987   0.077  -0.467
    1UNL    H27   64   0.734   0.197  -0.449
    1UNL    H28   65   0.630   0.099  -0.223
    1UNL    H29   66   0.060   0.081   0.397
    1UNL    H30   67   0.067  -0.088   0.398
    1UNL    H31   68  -0.170  -0.066   0.373
    1UNL    H32   69  -0.241   0.108   0.225
   0.00000   0.00000   0.00000   0.00000   0.00000   0.00000   0.00000   0.00000   0.00000
Generated with MDTraj, t= 8.0
 69
    1UNL     O1    1  -0.143  -0.010  -0.078
    1UNL     C1    2  -0.125   0.012   0.037
    1UNL     C2    3  -0.132  -0.089   0.148
    1UNL     C3    4  -0.259  -0.164   0.157
    1UNL     C4    5  -0.378  -0.104   0.145
    1UNL     O2    6  -0.389   0.026   0.117
    1UNL     C5    7  -0.527   0.067   0.089
    1UNL     O3    8  -0.533   0.209   0.080
    1UNL     C6    9  -0.532   0.248  -0.060
    1UNL     C7   10  -0.404   0.218  -0.139
    1UNL     O4   11  -0.384   0.080  -0.161
    1UNL     C8   12  -0.656   0.199  -0.140
    1UNL     O5   13  -0.654   0.218  -0.282
    1UNL     C9   14  -0.702   0.057  -0.109
    1UNL     O6   15  -0.829   0.041  -0.042
    1UNL    C10   16  -0.592  -0.023  -0.029
    1UNL     O7   17  -0.646  -0.151   0.014
    1UNL    C11   18  -0.013  -0.192   0.122
    1UNL    C12   19   0.128  -0.139   0.137
    1UNL    C13   20   0.135  -0.006   0.218
    1UNL    C14   21   0.277   0.027   0.257
    1UNL     O8   22   0.359   0.056   0.149
    1UNL    C15   23   0.427  -0.055   0.108
    1UNL     O9   24   0.426  -0.165   0.161
    1UNL    C16   25   0.514  -0.030  -0.000
    1UNL    C17   26   0.604  -0.121  -0.046
    1UNL    C18   27   0.698  -0.096  -0.155
    1UNL    C19   28   0.782  -0.203  -0.196
    1UNL    C20   29   0.874  -0.176  -0.298
    1UNL    C21   30   0.885  -0.054  -0.365
    1UNL    O10   31   0.998  -0.021  -0.443
    1UNL    C22   32   0.792   0.048  -0.332
    1UNL    O11   33   0.806   0.174  -0.387
    1UNL    C23   34   0.703   0.024  -0.227
    1UNL    C24   35   0.043  -0.022   0.336
    1UNL    C25   36  -0.112  -0.023   0.289
    1UNL    O12   37  -0.156   0.113   0.290
    1UNL     H1   38  -0.145   0.115   0.068
    1UNL     H2   39  -0.252  -0.268   0.180
    1UNL     H3   40  -0.466  -0.180   0.146
    1UNL     H4   41  -0.583   0.048   0.175
    1UNL     H5   42  -0.542   0.348  -0.044
    1UNL     H6   43  -0.407   0.266  -0.244
    1UNL     H7   44  -0.324   0.271  -0.097
    1UNL     H8   45  -0.294   0.053  -0.141
    1UNL     H9   46  -0.736   0.266  -0.104
    1UNL    H10   47  -0.739   0.184  -0.336
    1UNL    H11   48  -0.721   0.016  -0.210
    1UNL    H12   49  -0.896   0.098  -0.080
    1UNL    H13   50  -0.517  -0.065  -0.099
    1UNL    H14   51  -0.742  -0.147   0.037
    1UNL    H15   52  -0.020  -0.282   0.175
    1UNL    H16   53  -0.022  -0.239   0.025
    1UNL    H17   54   0.179  -0.124   0.036
    1UNL    H18   55   0.203  -0.214   0.190
    1UNL    H19   56   0.098   0.076   0.155
    1UNL    H20   57   0.310  -0.054   0.329
    1UNL    H21   58   0.277   0.119   0.326
    1UNL    H22   59   0.491   0.063  -0.059
    1UNL    H23   60   0.626  -0.205   0.013
    1UNL    H24   61   0.784  -0.295  -0.136
    1UNL    H25   62   0.948  -0.247  -0.320
    1UNL    H26   63   0.986   0.078  -0.470
    1UNL    H27   64   0.772   0.238  -0.324
    1UNL    H28   65   0.645   0.097  -0.193
    1UNL    H29   66   0.077   0.042   0.417
    1UNL    H30   67   0.074  -0.119   0.377
    1UNL    H31   68  -0.170  -0.079   0.364
    1UNL    H32   69  -0.245   0.123   0.246
   0.00000   0.00000   0.00000   0.00000   0.00000   0.00000   0.00000   0.00000   0.00000
Generated with MDTraj, t= 9.0
 69
    1UNL     O1    1  -0.104   0.007  -0.086
    1UNL     C1    2  -0.125   0.014   0.030
    1UNL     C2    3  -0.132  -0.100   0.135
    1UNL     C3    4  -0.252  -0.175   0.121
    1UNL     C4    5  -0.375  -0.114   0.120
    1UNL     O2    6  -0.397   0.022   0.135
    1UNL     C5    7  -0.531   0.063   0.096
    1UNL     O3    8  -0.533   0.202   0.064
    1UNL     C6    9  -0.536   0.243  -0.070
    1UNL     C7   10  -0.401   0.221  -0.142
    1UNL     O4   11  -0.372   0.090  -0.178
    1UNL     C8   12  -0.670   0.197  -0.133
    1UNL     O5   13  -0.658   0.209  -0.277
    1UNL     C9   14  -0.708   0.050  -0.090
    1UNL     O6   15  -0.808   0.066   0.000
    1UNL    C10   16  -0.585  -0.020  -0.021
    1UNL     O7   17  -0.632  -0.141   0.018
    1UNL    C11   18  -0.004  -0.194   0.126
    1UNL    C12   19   0.127  -0.112   0.113
    1UNL    C13   20   0.125   0.007   0.216
    1UNL    C14   21   0.264   0.049   0.265
    1UNL     O8   22   0.357   0.063   0.155
    1UNL    C15   23   0.430  -0.051   0.110
    1UNL     O9   24   0.412  -0.161   0.159
    1UNL    C16   25   0.515  -0.024  -0.004
    1UNL    C17   26   0.594  -0.115  -0.060
    1UNL    C18   27   0.706  -0.086  -0.146
    1UNL    C19   28   0.793  -0.192  -0.183
    1UNL    C20   29   0.876  -0.182  -0.291
    1UNL    C21   30   0.885  -0.064  -0.355
    1UNL    O10   31   0.967  -0.049  -0.467
    1UNL    C22   32   0.803   0.046  -0.315
    1UNL    O11   33   0.814   0.165  -0.388
    1UNL    C23   34   0.719   0.035  -0.210
    1UNL    C24   35   0.028  -0.022   0.336
    1UNL    C25   36  -0.119  -0.043   0.278
    1UNL    O12   37  -0.193   0.072   0.299
    1UNL     H1   38  -0.165   0.102   0.068
    1UNL     H2   39  -0.245  -0.282   0.116
    1UNL     H3   40  -0.456  -0.173   0.106
    1UNL     H4   41  -0.590   0.068   0.181
    1UNL     H5   42  -0.549   0.343  -0.057
    1UNL     H6   43  -0.399   0.291  -0.234
    1UNL     H7   44  -0.323   0.252  -0.081
    1UNL     H8   45  -0.275   0.069  -0.175
    1UNL     H9   46  -0.753   0.269  -0.105
    1UNL    H10   47  -0.672   0.119  -0.318
    1UNL    H11   48  -0.745  -0.010  -0.172
    1UNL    H12   49  -0.888   0.107  -0.038
    1UNL    H13   50  -0.509  -0.041  -0.099
    1UNL    H14   51  -0.728  -0.134   0.040
    1UNL    H15   52   0.009  -0.269   0.202
    1UNL    H16   53  -0.001  -0.253   0.038
    1UNL    H17   54   0.149  -0.065   0.012
    1UNL    H18   55   0.220  -0.178   0.139
    1UNL    H19   56   0.088   0.103   0.182
    1UNL    H20   57   0.306  -0.033   0.325
    1UNL    H21   58   0.251   0.132   0.344
    1UNL    H22   59   0.520   0.073  -0.035
    1UNL    H23   60   0.589  -0.217  -0.017
    1UNL    H24   61   0.785  -0.288  -0.123
    1UNL    H25   62   0.946  -0.264  -0.324
    1UNL    H26   63   0.954   0.036  -0.503
    1UNL    H27   64   0.821   0.240  -0.330
    1UNL    H28   65   0.641   0.116  -0.184
    1UNL    H29   66   0.026   0.065   0.397
    1UNL    H30   67   0.080  -0.095   0.400
    1UNL    H31   68  -0.162  -0.108   0.358
    1UNL    H32   69  -0.285   0.059   0.269
   0.00000   0.00000   0.00000   0.00000   0.00000   0.00000   0.00000   0.00000   0.00000
Generated with MDTraj, t= 10.0
 69
    1UNL     O1    1  -0.136   0.024  -0.083
    1UNL     C1    2  -0.142   0.013   0.037
    1UNL     C2    3  -0.129  -0.103   0.127
    1UNL     C3    4  -0.249  -0.184   0.121
    1UNL     C4    5  -0.364  -0.123   0.092
    1UNL     O2    6  -0.381   0.017   0.088
    1UNL     C5    7  -0.523   0.049   0.081
    1UNL     O3    8  -0.544   0.197   0.081
    1UNL     C6    9  -0.538   0.255  -0.056
    1UNL     C7   10  -0.407   0.219  -0.132
    1UNL     O4   11  -0.390   0.085  -0.169
    1UNL     C8   12  -0.653   0.202  -0.143
    1UNL     O5   13  -0.619   0.183  -0.282
    1UNL     C9   14  -0.717   0.065  -0.087
    1UNL     O6   15  -0.805   0.087   0.019
    1UNL    C10   16  -0.604  -0.030  -0.029
    1UNL     O7   17  -0.655  -0.141   0.037
    1UNL    C11   18  -0.002  -0.190   0.088
    1UNL    C12   19   0.129  -0.107   0.104
    1UNL    C13   20   0.128   0.003   0.213
    1UNL    C14   21   0.270   0.040   0.262
    1UNL     O8   22   0.365   0.085   0.165
    1UNL    C15   23   0.441  -0.017   0.120
    1UNL     O9   24   0.423  -0.135   0.144
    1UNL    C16   25   0.536   0.011   0.015
    1UNL    C17   26   0.613  -0.088  -0.030
    1UNL    C18   27   0.709  -0.087  -0.136
    1UNL    C19   28   0.768  -0.204  -0.178
    1UNL    C20   29   0.847  -0.197  -0.289
    1UNL    C21   30   0.877  -0.074  -0.364
    1UNL    O10   31   0.971  -0.062  -0.457
    1UNL    C22   32   0.807   0.040  -0.321
    1UNL    O11   33   0.819   0.157  -0.395
    1UNL    C23   34   0.723   0.030  -0.212
    1UNL    C24   35   0.033  -0.030   0.331
    1UNL    C25   36  -0.111  -0.060   0.281
    1UNL    O12   37  -0.197   0.043   0.314
    1UNL     H1   38  -0.174   0.113   0.082
    1UNL     H2   39  -0.250  -0.294   0.123
    1UNL     H3   40  -0.460  -0.184   0.088
    1UNL     H4   41  -0.553   0.027   0.178
    1UNL     H5   42  -0.551   0.354  -0.033
    1UNL     H6   43  -0.408   0.269  -0.236
    1UNL     H7   44  -0.327   0.254  -0.078
    1UNL     H8   45  -0.294   0.060  -0.154
    1UNL     H9   46  -0.734   0.283  -0.143
    1UNL    H10   47  -0.678   0.233  -0.335
    1UNL    H11   48  -0.773   0.016  -0.166
    1UNL    H12   49  -0.892   0.121  -0.013
    1UNL    H13   50  -0.541  -0.060  -0.114
    1UNL    H14   51  -0.746  -0.121   0.067
    1UNL    H15   52   0.021  -0.275   0.152
    1UNL    H16   53  -0.000  -0.234  -0.006
    1UNL    H17   54   0.146  -0.061   0.000
    1UNL    H18   55   0.215  -0.174   0.123
    1UNL    H19   56   0.085   0.100   0.182
    1UNL    H20   57   0.305  -0.028   0.339
    1UNL    H21   58   0.261   0.136   0.316
    1UNL    H22   59   0.559   0.115  -0.018
    1UNL    H23   60   0.584  -0.183   0.005
    1UNL    H24   61   0.760  -0.294  -0.134
    1UNL    H25   62   0.894  -0.283  -0.318
    1UNL    H26   63   0.974   0.035  -0.491
    1UNL    H27   64   0.815   0.237  -0.338
    1UNL    H28   65   0.655   0.117  -0.187
    1UNL    H29   66   0.047   0.045   0.406
    1UNL    H30   67   0.066  -0.127   0.371
    1UNL    H31   68  -0.152  -0.143   0.344
    1UNL    H32   69  -0.279   0.036   0.254
   0.00000   0.00000   0.00000   0.00000   0.00000   0.00000   0.00000   0.00000   0.00000
Generated with MDTraj, t= 11.0
 69
    1UNL     O1    1  -0.112   0.019  -0.089
    1UNL     C1    2  -0.124   0.019   0.031
    1UNL     C2    3  -0.113  -0.100   0.120
    1UNL     C3    4  -0.242  -0.178   0.086
    1UNL     C4    5  -0.364  -0.126   0.077
    1UNL     O2    6  -0.398   0.010   0.112
    1UNL     C5    7  -0.533   0.046   0.087
    1UNL     O3    8  -0.552   0.187   0.078
    1UNL     C6    9  -0.542   0.253  -0.054
    1UNL     C7   10  -0.401   0.219  -0.122
    1UNL     O4   11  -0.385   0.088  -0.169
    1UNL     C8   12  -0.661   0.200  -0.136
    1UNL     O5   13  -0.632   0.174  -0.270
    1UNL     C9   14  -0.730   0.071  -0.076
    1UNL     O6   15  -0.840   0.089   0.016
    1UNL    C10   16  -0.615  -0.020  -0.025
    1UNL     O7   17  -0.681  -0.136   0.015
    1UNL    C11   18   0.014  -0.182   0.082
    1UNL    C12   19   0.149  -0.109   0.110
    1UNL    C13   20   0.131   0.006   0.219
    1UNL    C14   21   0.262   0.053   0.275
    1UNL     O8   22   0.352   0.088   0.171
    1UNL    C15   23   0.432  -0.017   0.132
    1UNL     O9   24   0.435  -0.127   0.188
    1UNL    C16   25   0.519   0.013   0.013
    1UNL    C17   26   0.601  -0.080  -0.037
    1UNL    C18   27   0.696  -0.070  -0.147
    1UNL    C19   28   0.770  -0.189  -0.179
    1UNL    C20   29   0.854  -0.195  -0.284
    1UNL    C21   30   0.872  -0.087  -0.363
    1UNL    O10   31   0.960  -0.086  -0.470
    1UNL    C22   32   0.812   0.035  -0.326
    1UNL    O11   33   0.859   0.144  -0.399
    1UNL    C23   34   0.726   0.045  -0.219
    1UNL    C24   35   0.041  -0.054   0.330
    1UNL    C25   36  -0.104  -0.067   0.270
    1UNL    O12   37  -0.182   0.048   0.303
    1UNL     H1   38  -0.167   0.104   0.074
    1UNL     H2   39  -0.240  -0.282   0.074
    1UNL     H3   40  -0.449  -0.174   0.024
    1UNL     H4   41  -0.582   0.014   0.172
    1UNL     H5   42  -0.559   0.352  -0.028
    1UNL     H6   43  -0.378   0.290  -0.208
    1UNL     H7   44  -0.327   0.235  -0.054
    1UNL     H8   45  -0.293   0.057  -0.153
    1UNL     H9   46  -0.738   0.283  -0.144
    1UNL    H10   47  -0.543   0.197  -0.282
    1UNL    H11   48  -0.776   0.019  -0.160
    1UNL    H12   49  -0.813   0.167   0.074
    1UNL    H13   50  -0.552  -0.052  -0.110
    1UNL    H14   51  -0.765  -0.117   0.066
    1UNL    H15   52   0.024  -0.277   0.136
    1UNL    H16   53   0.018  -0.212  -0.015
    1UNL    H17   54   0.180  -0.066   0.008
    1UNL    H18   55   0.229  -0.181   0.122
    1UNL    H19   56   0.073   0.090   0.176
    1UNL    H20   57   0.305  -0.026   0.335
    1UNL    H21   58   0.260   0.143   0.333
    1UNL    H22   59   0.510   0.115  -0.029
    1UNL    H23   60   0.599  -0.175   0.018
    1UNL    H24   61   0.757  -0.274  -0.105
    1UNL    H25   62   0.924  -0.281  -0.299
    1UNL    H26   63   0.965   0.003  -0.511
    1UNL    H27   64   0.811   0.230  -0.375
    1UNL    H28   65   0.683   0.131  -0.192
    1UNL    H29   66   0.023   0.028   0.397
    1UNL    H30   67   0.086  -0.139   0.385
    1UNL    H31   68  -0.164  -0.146   0.320
    1UNL    H32   69  -0.254   0.046   0.239
   0.00000   0.00000   0.00000   0.00000   0.00000   0.00000   0.00000   0.00000   0.00000
Generated with MDTraj, t= 12.0
 69
    1UNL     O1    1  -0.121   0.027  -0.100
    1UNL     C1    2  -0.125   0.026   0.016
    1UNL     C2    3  -0.115  -0.094   0.108
    1UNL     C3    4  -0.245  -0.174   0.080
    1UNL     C4    5  -0.365  -0.119   0.088
    1UNL     O2    6  -0.393   0.021   0.095
    1UNL     C5    7  -0.532   0.041   0.092
    1UNL     O3    8  -0.556   0.183   0.091
    1UNL     C6    9  -0.551   0.245  -0.035
    1UNL     C7   10  -0.406   0.229  -0.082
    1UNL     O4   11  -0.377   0.112  -0.151
    1UNL     C8   12  -0.661   0.190  -0.138
    1UNL     O5   13  -0.611   0.176  -0.267
    1UNL     C9   14  -0.717   0.055  -0.084
    1UNL     O6   15  -0.802   0.075   0.028
    1UNL    C10   16  -0.599  -0.033  -0.027
    1UNL     O7   17  -0.646  -0.157   0.019
    1UNL    C11   18   0.004  -0.183   0.075
    1UNL    C12   19   0.134  -0.105   0.097
    1UNL    C13   20   0.122   0.010   0.206
    1UNL    C14   21   0.259   0.025   0.259
    1UNL     O8   22   0.339   0.086   0.163
    1UNL    C15   23   0.431  -0.011   0.124
    1UNL     O9   24   0.447  -0.122   0.179
    1UNL    C16   25   0.528   0.026   0.019
    1UNL    C17   26   0.604  -0.078  -0.022
    1UNL    C18   27   0.699  -0.079  -0.133
    1UNL    C19   28   0.752  -0.201  -0.180
    1UNL    C20   29   0.840  -0.212  -0.286
    1UNL    C21   30   0.875  -0.094  -0.356
    1UNL    O10   31   0.961  -0.077  -0.463
    1UNL    C22   32   0.816   0.029  -0.316
    1UNL    O11   33   0.838   0.146  -0.391
    1UNL    C23   34   0.731   0.033  -0.207
    1UNL    C24   35   0.020  -0.035   0.309
    1UNL    C25   36  -0.123  -0.047   0.257
    1UNL    O12   37  -0.193   0.072   0.274
    1UNL     H1   38  -0.143   0.121   0.063
    1UNL     H2   39  -0.239  -0.285   0.058
    1UNL     H3   40  -0.452  -0.171   0.095
    1UNL     H4   41  -0.568   0.005   0.181
    1UNL     H5   42  -0.568   0.349  -0.025
    1UNL     H6   43  -0.379   0.314  -0.151
    1UNL     H7   44  -0.342   0.239  -0.002
    1UNL     H8   45  -0.285   0.084  -0.127
    1UNL     H9   46  -0.746   0.259  -0.157
    1UNL    H10   47  -0.517   0.128  -0.256
    1UNL    H11   48  -0.779  -0.007  -0.151
    1UNL    H12   49  -0.746   0.108   0.101
    1UNL    H13   50  -0.517  -0.045  -0.096
    1UNL    H14   51  -0.716  -0.133   0.083
    1UNL    H15   52   0.008  -0.264   0.147
    1UNL    H16   53   0.001  -0.240  -0.012
    1UNL    H17   54   0.162  -0.068  -0.008
    1UNL    H18   55   0.220  -0.169   0.102
    1UNL    H19   56   0.087   0.101   0.156
    1UNL    H20   57   0.321  -0.059   0.294
    1UNL    H21   58   0.250   0.086   0.348
    1UNL    H22   59   0.525   0.117  -0.025
    1UNL    H23   60   0.593  -0.166   0.038
    1UNL    H24   61   0.725  -0.292  -0.124
    1UNL    H25   62   0.894  -0.301  -0.317
    1UNL    H26   63   0.971   0.017  -0.485
    1UNL    H27   64   0.750   0.189  -0.415
    1UNL    H28   65   0.682   0.127  -0.178
    1UNL    H29   66   0.013   0.049   0.376
    1UNL    H30   67   0.061  -0.123   0.362
    1UNL    H31   68  -0.183  -0.114   0.318
    1UNL    H32   69  -0.281   0.063   0.225
   0.00000   0.00000   0.00000   0.00000   0.00000   0.00000   0.00000   0.00000   0.00000
Generated with MDTraj, t= 13.0
 69
    1UNL     O1    1  -0.126  -0.000  -0.111
    1UNL     C1    2  -0.126   0.019   0.009
    1UNL     C2    3  -0.108  -0.091   0.109
    1UNL     C3    4  -0.235  -0.185   0.087
    1UNL     C4    5  -0.359  -0.136   0.105
    1UNL     O2    6  -0.394  -0.000   0.117
    1UNL     C5    7  -0.535   0.035   0.097
    1UNL     O3    8  -0.569   0.176   0.101
    1UNL     C6    9  -0.555   0.241  -0.026
    1UNL     C7   10  -0.413   0.245  -0.088
    1UNL     O4   11  -0.387   0.130  -0.164
    1UNL     C8   12  -0.670   0.191  -0.124
    1UNL     O5   13  -0.630   0.210  -0.261
    1UNL     C9   14  -0.721   0.057  -0.082
    1UNL     O6   15  -0.830   0.062   0.005
    1UNL    C10   16  -0.602  -0.035  -0.031
    1UNL     O7   17  -0.643  -0.169  -0.007
    1UNL    C11   18   0.020  -0.168   0.080
    1UNL    C12   19   0.152  -0.088   0.097
    1UNL    C13   20   0.137   0.030   0.204
    1UNL    C14   21   0.266   0.061   0.265
    1UNL     O8   22   0.357   0.095   0.164
    1UNL    C15   23   0.427  -0.019   0.136
    1UNL     O9   24   0.407  -0.132   0.185
    1UNL    C16   25   0.536  -0.005   0.038
    1UNL    C17   26   0.606  -0.104  -0.021
    1UNL    C18   27   0.695  -0.100  -0.139
    1UNL    C19   28   0.778  -0.209  -0.182
    1UNL    C20   29   0.859  -0.211  -0.295
    1UNL    C21   30   0.878  -0.086  -0.363
    1UNL    O10   31   0.954  -0.070  -0.474
    1UNL    C22   32   0.811   0.029  -0.311
    1UNL    O11   33   0.842   0.146  -0.375
    1UNL    C23   34   0.713   0.018  -0.213
    1UNL    C24   35   0.035  -0.017   0.309
    1UNL    C25   36  -0.111  -0.034   0.252
    1UNL    O12   37  -0.176   0.085   0.267
    1UNL     H1   38  -0.136   0.129   0.038
    1UNL     H2   39  -0.220  -0.286   0.062
    1UNL     H3   40  -0.452  -0.203   0.101
    1UNL     H4   41  -0.593  -0.012   0.167
    1UNL     H5   42  -0.565   0.347   0.000
    1UNL     H6   43  -0.403   0.331  -0.157
    1UNL     H7   44  -0.342   0.268  -0.017
    1UNL     H8   45  -0.299   0.084  -0.150
    1UNL     H9   46  -0.754   0.259  -0.125
    1UNL    H10   47  -0.560   0.138  -0.288
    1UNL    H11   48  -0.769   0.009  -0.171
    1UNL    H12   49  -0.826   0.142   0.060
    1UNL    H13   50  -0.529  -0.044  -0.109
    1UNL    H14   51  -0.706  -0.164   0.067
    1UNL    H15   52   0.031  -0.256   0.140
    1UNL    H16   53   0.010  -0.216  -0.018
    1UNL    H17   54   0.199  -0.057  -0.001
    1UNL    H18   55   0.233  -0.155   0.117
    1UNL    H19   56   0.106   0.121   0.151
    1UNL    H20   57   0.296  -0.014   0.344
    1UNL    H21   58   0.269   0.161   0.311
    1UNL    H22   59   0.555   0.101   0.004
    1UNL    H23   60   0.572  -0.202   0.008
    1UNL    H24   61   0.775  -0.296  -0.131
    1UNL    H25   62   0.903  -0.301  -0.328
    1UNL    H26   63   0.945   0.027  -0.511
    1UNL    H27   64   0.769   0.211  -0.376
    1UNL    H28   65   0.642   0.108  -0.194
    1UNL    H29   66   0.039   0.055   0.390
    1UNL    H30   67   0.067  -0.114   0.351
    1UNL    H31   68  -0.161  -0.107   0.315
    1UNL    H32   69  -0.267   0.072   0.235
   0.00000   0.00000   0.00000   0.00000   0.00000   0.00000   0.00000   0.00000   0.00000
Generated with MDTraj, t= 14.0
 69
    1UNL     O1    1  -0.160   0.002  -0.102
    1UNL     C1    2  -0.120   0.024   0.010
    1UNL     C2    3  -0.106  -0.078   0.119
    1UNL     C3    4  -0.231  -0.165   0.102
    1UNL     C4    5  -0.358  -0.120   0.082
    1UNL     O2    6  -0.392   0.010   0.086
    1UNL     C5    7  -0.534   0.025   0.088
    1UNL     O3    8  -0.568   0.160   0.103
    1UNL     C6    9  -0.556   0.236  -0.015
    1UNL     C7   10  -0.420   0.229  -0.087
    1UNL     O4   11  -0.407   0.111  -0.168
    1UNL     C8   12  -0.679   0.204  -0.104
    1UNL     O5   13  -0.642   0.244  -0.240
    1UNL     C9   14  -0.714   0.055  -0.087
    1UNL     O6   15  -0.832   0.028  -0.018
    1UNL    C10   16  -0.595  -0.043  -0.044
    1UNL     O7   17  -0.638  -0.175  -0.019
    1UNL    C11   18   0.017  -0.167   0.095
    1UNL    C12   19   0.144  -0.085   0.095
    1UNL    C13   20   0.142   0.032   0.199
    1UNL    C14   21   0.273   0.052   0.261
    1UNL     O8   22   0.373   0.075   0.157
    1UNL    C15   23   0.448  -0.033   0.126
    1UNL     O9   24   0.433  -0.139   0.188
    1UNL    C16   25   0.536  -0.014   0.016
    1UNL    C17   26   0.609  -0.116  -0.023
    1UNL    C18   27   0.700  -0.104  -0.135
    1UNL    C19   28   0.763  -0.216  -0.188
    1UNL    C20   29   0.854  -0.206  -0.292
    1UNL    C21   30   0.876  -0.089  -0.355
    1UNL    O10   31   0.965  -0.066  -0.459
    1UNL    C22   32   0.806   0.027  -0.311
    1UNL    O11   33   0.823   0.147  -0.381
    1UNL    C23   34   0.727   0.018  -0.198
    1UNL    C24   35   0.043   0.013   0.312
    1UNL    C25   36  -0.107  -0.009   0.261
    1UNL    O12   37  -0.184   0.111   0.274
    1UNL     H1   38  -0.128   0.123   0.041
    1UNL     H2   39  -0.214  -0.273   0.114
    1UNL     H3   40  -0.434  -0.196   0.058
    1UNL     H4   41  -0.570  -0.025   0.169
    1UNL     H5   42  -0.553   0.339   0.032
    1UNL     H6   43  -0.405   0.324  -0.139
    1UNL     H7   44  -0.343   0.221  -0.017
    1UNL     H8   45  -0.320   0.073  -0.149
    1UNL     H9   46  -0.766   0.256  -0.071
    1UNL    H10   47  -0.557   0.213  -0.246
    1UNL    H11   48  -0.749   0.026  -0.190
    1UNL    H12   49  -0.817   0.040   0.080
    1UNL    H13   50  -0.512  -0.043  -0.112
    1UNL    H14   51  -0.717  -0.177   0.041
    1UNL    H15   52   0.030  -0.241   0.168
    1UNL    H16   53   0.016  -0.231   0.000
    1UNL    H17   54   0.168  -0.049  -0.007
    1UNL    H18   55   0.229  -0.149   0.104
    1UNL    H19   56   0.114   0.132   0.161
    1UNL    H20   57   0.283  -0.050   0.311
    1UNL    H21   58   0.273   0.120   0.348
    1UNL    H22   59   0.531   0.086  -0.036
    1UNL    H23   60   0.583  -0.211   0.025
    1UNL    H24   61   0.726  -0.318  -0.146
    1UNL    H25   62   0.902  -0.298  -0.331
    1UNL    H26   63   0.969   0.024  -0.481
    1UNL    H27   64   0.774   0.219  -0.342
    1UNL    H28   65   0.675   0.099  -0.165
    1UNL    H29   66   0.035   0.105   0.370
    1UNL    H30   67   0.072  -0.061   0.387
    1UNL    H31   68  -0.148  -0.084   0.329
    1UNL    H32   69  -0.263   0.111   0.212
   0.00000   0.00000   0.00000   0.00000   0.00000   0.00000   0.00000   0.00000   0.00000
Generated with MDTraj, t= 15.0
 69
    1UNL     O1    1  -0.149   0.007  -0.113
    1UNL     C1    2  -0.131   0.017   0.002
    1UNL     C2    3  -0.118  -0.088   0.115
    1UNL     C3    4  -0.233  -0.176   0.114
    1UNL     C4    5  -0.361  -0.125   0.099
    1UNL     O2    6  -0.405   0.003   0.112
    1UNL     C5    7  -0.551   0.025   0.091
    1UNL     O3    8  -0.588   0.167   0.107
    1UNL     C6    9  -0.578   0.246  -0.007
    1UNL     C7   10  -0.431   0.259  -0.065
    1UNL     O4   11  -0.402   0.155  -0.159
    1UNL     C8   12  -0.685   0.194  -0.114
    1UNL     O5   13  -0.636   0.231  -0.248
    1UNL     C9   14  -0.724   0.042  -0.102
    1UNL     O6   15  -0.822   0.008  -0.002
    1UNL    C10   16  -0.596  -0.036  -0.053
    1UNL     O7   17  -0.636  -0.169  -0.034
    1UNL    C11   18   0.014  -0.167   0.109
    1UNL    C12   19   0.138  -0.083   0.111
    1UNL    C13   20   0.138   0.031   0.212
    1UNL    C14   21   0.278   0.058   0.277
    1UNL     O8   22   0.382   0.077   0.179
    1UNL    C15   23   0.452  -0.029   0.131
    1UNL     O9   24   0.433  -0.137   0.184
    1UNL    C16   25   0.544  -0.014   0.024
    1UNL    C17   26   0.611  -0.116  -0.040
    1UNL    C18   27   0.705  -0.106  -0.150
    1UNL    C19   28   0.777  -0.216  -0.192
    1UNL    C20   29   0.872  -0.209  -0.296
    1UNL    C21   30   0.888  -0.090  -0.364
    1UNL    O10   31   0.974  -0.079  -0.471
    1UNL    C22   32   0.819   0.024  -0.322
    1UNL    O11   33   0.839   0.145  -0.388
    1UNL    C23   34   0.734   0.017  -0.210
    1UNL    C24   35   0.026   0.011   0.316
    1UNL    C25   36  -0.119  -0.015   0.255
    1UNL    O12   37  -0.183   0.107   0.240
    1UNL     H1   38  -0.110   0.120   0.037
    1UNL     H2   39  -0.214  -0.281   0.101
    1UNL     H3   40  -0.433  -0.196   0.089
    1UNL     H4   41  -0.602  -0.018   0.168
    1UNL     H5   42  -0.607   0.351   0.030
    1UNL     H6   43  -0.425   0.346  -0.133
    1UNL     H7   44  -0.362   0.271   0.013
    1UNL     H8   45  -0.319   0.105  -0.141
    1UNL     H9   46  -0.778   0.244  -0.110
    1UNL    H10   47  -0.556   0.168  -0.270
    1UNL    H11   48  -0.753  -0.002  -0.200
    1UNL    H12   49  -0.800   0.067   0.076
    1UNL    H13   50  -0.511  -0.024  -0.118
    1UNL    H14   51  -0.726  -0.175   0.004
    1UNL    H15   52   0.032  -0.237   0.186
    1UNL    H16   53   0.021  -0.229   0.013
    1UNL    H17   54   0.173  -0.058   0.011
    1UNL    H18   55   0.219  -0.142   0.152
    1UNL    H19   56   0.110   0.133   0.180
    1UNL    H20   57   0.309  -0.015   0.356
    1UNL    H21   58   0.260   0.153   0.329
    1UNL    H22   59   0.540   0.078  -0.015
    1UNL    H23   60   0.608  -0.210   0.008
    1UNL    H24   61   0.772  -0.312  -0.149
    1UNL    H25   62   0.926  -0.291  -0.332
    1UNL    H26   63   0.968   0.015  -0.511
    1UNL    H27   64   0.872   0.212  -0.324
    1UNL    H28   65   0.691   0.107  -0.171
    1UNL    H29   66   0.018   0.088   0.393
    1UNL    H30   67   0.056  -0.074   0.376
    1UNL    H31   68  -0.173  -0.078   0.328
    1UNL    H32   69  -0.271   0.101   0.200
   0.00000   0.00000   0.00000   0.00000   0.00000   0.00000   0.00000   0.00000   0.00000
Generated with MDTraj, t= 16.0
 69
    1UNL     O1    1  -0.159   0.012  -0.111
    1UNL     C1    2  -0.121   0.023   0.003
    1UNL     C2    3  -0.123  -0.083   0.109
    1UNL     C3    4  -0.243  -0.160   0.113
    1UNL     C4    5  -0.367  -0.110   0.104
    1UNL     O2    6  -0.404   0.021   0.107
    1UNL     C5    7  -0.547   0.028   0.095
    1UNL     O3    8  -0.600   0.161   0.108
    1UNL     C6    9  -0.591   0.248  -0.011
    1UNL     C7   10  -0.436   0.249  -0.049
    1UNL     O4   11  -0.404   0.146  -0.142
    1UNL     C8   12  -0.683   0.194  -0.122
    1UNL     O5   13  -0.626   0.210  -0.254
    1UNL     C9   14  -0.720   0.043  -0.096
    1UNL     O6   15  -0.826   0.026  -0.000
    1UNL    C10   16  -0.595  -0.032  -0.044
    1UNL     O7   17  -0.614  -0.173  -0.040
    1UNL    C11   18   0.005  -0.180   0.096
    1UNL    C12   19   0.145  -0.105   0.099
    1UNL    C13   20   0.139   0.018   0.200
    1UNL    C14   21   0.275   0.056   0.259
    1UNL     O8   22   0.371   0.079   0.158
    1UNL    C15   23   0.445  -0.026   0.121
    1UNL     O9   24   0.430  -0.147   0.146
    1UNL    C16   25   0.551   0.009   0.025
    1UNL    C17   26   0.617  -0.095  -0.026
    1UNL    C18   27   0.707  -0.088  -0.137
    1UNL    C19   28   0.762  -0.210  -0.180
    1UNL    C20   29   0.853  -0.209  -0.282
    1UNL    C21   30   0.888  -0.092  -0.346
    1UNL    O10   31   0.970  -0.103  -0.453
    1UNL    C22   32   0.824   0.032  -0.317
    1UNL    O11   33   0.854   0.145  -0.393
    1UNL    C23   34   0.729   0.027  -0.211
    1UNL    C24   35   0.041  -0.006   0.314
    1UNL    C25   36  -0.101  -0.017   0.254
    1UNL    O12   37  -0.175   0.105   0.257
    1UNL     H1   38  -0.111   0.127   0.041
    1UNL     H2   39  -0.230  -0.267   0.128
    1UNL     H3   40  -0.454  -0.181   0.090
    1UNL     H4   41  -0.598  -0.025   0.167
    1UNL     H5   42  -0.628   0.353   0.024
    1UNL     H6   43  -0.403   0.345  -0.095
    1UNL     H7   44  -0.381   0.212   0.033
    1UNL     H8   45  -0.316   0.103  -0.120
    1UNL     H9   46  -0.778   0.244  -0.129
    1UNL    H10   47  -0.523   0.194  -0.245
    1UNL    H11   48  -0.744  -0.016  -0.186
    1UNL    H12   49  -0.800   0.036   0.092
    1UNL    H13   50  -0.526  -0.018  -0.126
    1UNL    H14   51  -0.694  -0.196   0.010
    1UNL    H15   52   0.005  -0.257   0.173
    1UNL    H16   53   0.013  -0.239   0.000
    1UNL    H17   54   0.182  -0.066   0.009
    1UNL    H18   55   0.226  -0.174   0.127
    1UNL    H19   56   0.100   0.112   0.152
    1UNL    H20   57   0.303  -0.036   0.315
    1UNL    H21   58   0.289   0.145   0.319
    1UNL    H22   59   0.571   0.111  -0.009
    1UNL    H23   60   0.599  -0.191   0.024
    1UNL    H24   61   0.725  -0.296  -0.135
    1UNL    H25   62   0.894  -0.308  -0.313
    1UNL    H26   63   0.970  -0.018  -0.502
    1UNL    H27   64   0.828   0.229  -0.344
    1UNL    H28   65   0.687   0.127  -0.180
    1UNL    H29   66   0.058   0.068   0.393
    1UNL    H30   67   0.077  -0.098   0.359
    1UNL    H31   68  -0.151  -0.090   0.323
    1UNL    H32   69  -0.273   0.093   0.237
   0.00000   0.00000   0.00000   0.00000   0.00000   0.00000   0.00000   0.00000   0.00000
Generated with MDTraj, t= 17.0
 69
    1UNL     O1    1  -0.141   0.025  -0.103
    1UNL     C1    2  -0.139   0.039   0.019
    1UNL     C2    3  -0.128  -0.080   0.112
    1UNL     C3    4  -0.240  -0.172   0.089
    1UNL     C4    5  -0.364  -0.137   0.092
    1UNL     O2    6  -0.404  -0.002   0.121
    1UNL     C5    7  -0.543   0.026   0.099
    1UNL     O3    8  -0.571   0.167   0.106
    1UNL     C6    9  -0.569   0.244  -0.019
    1UNL     C7   10  -0.427   0.242  -0.077
    1UNL     O4   11  -0.403   0.130  -0.157
    1UNL     C8   12  -0.672   0.197  -0.116
    1UNL     O5   13  -0.647   0.230  -0.249
    1UNL     C9   14  -0.714   0.041  -0.098
    1UNL     O6   15  -0.833   0.039  -0.017
    1UNL    C10   16  -0.599  -0.041  -0.034
    1UNL     O7   17  -0.640  -0.172  -0.006
    1UNL    C11   18   0.008  -0.166   0.089
    1UNL    C12   19   0.142  -0.085   0.100
    1UNL    C13   20   0.124   0.024   0.213
    1UNL    C14   21   0.270   0.060   0.252
    1UNL     O8   22   0.361   0.099   0.157
    1UNL    C15   23   0.438  -0.013   0.115
    1UNL     O9   24   0.424  -0.128   0.159
    1UNL    C16   25   0.526   0.004  -0.001
    1UNL    C17   26   0.611  -0.094  -0.035
    1UNL    C18   27   0.708  -0.094  -0.150
    1UNL    C19   28   0.776  -0.210  -0.190
    1UNL    C20   29   0.876  -0.215  -0.282
    1UNL    C21   30   0.905  -0.098  -0.351
    1UNL    O10   31   0.976  -0.100  -0.470
    1UNL    C22   32   0.843   0.024  -0.311
    1UNL    O11   33   0.869   0.140  -0.381
    1UNL    C23   34   0.745   0.024  -0.213
    1UNL    C24   35   0.025  -0.024   0.323
    1UNL    C25   36  -0.118  -0.033   0.269
    1UNL    O12   37  -0.187   0.092   0.293
    1UNL     H1   38  -0.155   0.132   0.060
    1UNL     H2   39  -0.225  -0.276   0.070
    1UNL     H3   40  -0.443  -0.207   0.062
    1UNL     H4   41  -0.585  -0.006   0.187
    1UNL     H5   42  -0.590   0.350   0.027
    1UNL     H6   43  -0.406   0.328  -0.150
    1UNL     H7   44  -0.365   0.232   0.006
    1UNL     H8   45  -0.313   0.090  -0.158
    1UNL     H9   46  -0.762   0.258  -0.099
    1UNL    H10   47  -0.580   0.175  -0.286
    1UNL    H11   48  -0.732  -0.004  -0.195
    1UNL    H12   49  -0.824   0.083   0.072
    1UNL    H13   50  -0.519  -0.031  -0.106
    1UNL    H14   51  -0.729  -0.164   0.037
    1UNL    H15   52   0.021  -0.256   0.160
    1UNL    H16   53   0.008  -0.212  -0.011
    1UNL    H17   54   0.170  -0.051   0.007
    1UNL    H18   55   0.227  -0.147   0.134
    1UNL    H19   56   0.064   0.105   0.163
    1UNL    H20   57   0.331  -0.017   0.301
    1UNL    H21   58   0.268   0.139   0.325
    1UNL    H22   59   0.532   0.111  -0.043
    1UNL    H23   60   0.599  -0.181   0.024
    1UNL    H24   61   0.745  -0.308  -0.133
    1UNL    H25   62   0.920  -0.306  -0.313
    1UNL    H26   63   0.989  -0.010  -0.501
    1UNL    H27   64   0.789   0.203  -0.377
    1UNL    H28   65   0.714   0.118  -0.184
    1UNL    H29   66   0.035   0.053   0.401
    1UNL    H30   67   0.067  -0.113   0.367
    1UNL    H31   68  -0.178  -0.103   0.333
    1UNL    H32   69  -0.276   0.070   0.262
   0.00000   0.00000   0.00000   0.00000   0.00000   0.00000   0.00000   0.00000   0.00000
Generated with MDTraj, t= 18.0
 69
    1UNL     O1    1  -0.134   0.032  -0.085
    1UNL     C1    2  -0.137   0.033   0.031
    1UNL     C2    3  -0.124  -0.093   0.116
    1UNL     C3    4  -0.243  -0.180   0.097
    1UNL     C4    5  -0.363  -0.126   0.104
    1UNL     O2    6  -0.396   0.011   0.094
    1UNL     C5    7  -0.535   0.033   0.092
    1UNL     O3    8  -0.567   0.170   0.103
    1UNL     C6    9  -0.557   0.245  -0.019
    1UNL     C7   10  -0.416   0.232  -0.078
    1UNL     O4   11  -0.403   0.107  -0.153
    1UNL     C8   12  -0.669   0.199  -0.119
    1UNL     O5   13  -0.645   0.216  -0.253
    1UNL     C9   14  -0.721   0.052  -0.089
    1UNL     O6   15  -0.830   0.059  -0.001
    1UNL    C10   16  -0.607  -0.035  -0.033
    1UNL     O7   17  -0.648  -0.166   0.009
    1UNL    C11   18   0.006  -0.167   0.071
    1UNL    C12   19   0.125  -0.069   0.066
    1UNL    C13   20   0.124   0.038   0.183
    1UNL    C14   21   0.265   0.059   0.241
    1UNL     O8   22   0.353   0.098   0.144
    1UNL    C15   23   0.430  -0.011   0.114
    1UNL     O9   24   0.427  -0.122   0.171
    1UNL    C16   25   0.529   0.005   0.005
    1UNL    C17   26   0.613  -0.091  -0.036
    1UNL    C18   27   0.695  -0.094  -0.156
    1UNL    C19   28   0.757  -0.213  -0.193
    1UNL    C20   29   0.870  -0.217  -0.277
    1UNL    C21   30   0.907  -0.098  -0.343
    1UNL    O10   31   0.999  -0.093  -0.445
    1UNL    C22   32   0.837   0.022  -0.315
    1UNL    O11   33   0.872   0.144  -0.375
    1UNL    C23   34   0.738   0.026  -0.221
    1UNL    C24   35   0.035  -0.011   0.299
    1UNL    C25   36  -0.107  -0.056   0.266
    1UNL    O12   37  -0.205   0.048   0.318
    1UNL     H1   38  -0.145   0.133   0.084
    1UNL     H2   39  -0.227  -0.286   0.070
    1UNL     H3   40  -0.449  -0.176   0.129
    1UNL     H4   41  -0.571  -0.007   0.179
    1UNL     H5   42  -0.574   0.355   0.011
    1UNL     H6   43  -0.414   0.313  -0.160
    1UNL     H7   44  -0.337   0.238  -0.010
    1UNL     H8   45  -0.313   0.078  -0.132
    1UNL     H9   46  -0.759   0.266  -0.109
    1UNL    H10   47  -0.551   0.199  -0.272
    1UNL    H11   48  -0.755   0.004  -0.179
    1UNL    H12   49  -0.797   0.083   0.090
    1UNL    H13   50  -0.537  -0.068  -0.111
    1UNL    H14   51  -0.742  -0.182   0.033
    1UNL    H15   52   0.031  -0.259   0.140
    1UNL    H16   53   0.007  -0.211  -0.030
    1UNL    H17   54   0.123  -0.019  -0.024
    1UNL    H18   55   0.215  -0.132   0.061
    1UNL    H19   56   0.078   0.123   0.128
    1UNL    H20   57   0.306  -0.024   0.301
    1UNL    H21   58   0.269   0.141   0.312
    1UNL    H22   59   0.532   0.094  -0.041
    1UNL    H23   60   0.614  -0.187   0.017
    1UNL    H24   61   0.736  -0.298  -0.142
    1UNL    H25   62   0.927  -0.307  -0.300
    1UNL    H26   63   0.990   0.003  -0.484
    1UNL    H27   64   0.789   0.191  -0.400
    1UNL    H28   65   0.707   0.120  -0.176
    1UNL    H29   66   0.036   0.063   0.382
    1UNL    H30   67   0.092  -0.093   0.341
    1UNL    H31   68  -0.143  -0.134   0.336
    1UNL    H32   69  -0.287   0.047   0.259
   0.00000   0.00000   0.00000   0.00000   0.00000   0.00000   0.00000   0.00000   0.00000
Generated with MDTraj, t= 19.0
 69
    1UNL     O1    1  -0.133   0.035  -0.080
    1UNL     C1    2  -0.128   0.032   0.040
    1UNL     C2    3  -0.120  -0.092   0.115
    1UNL     C3    4  -0.249  -0.175   0.081
    1UNL     C4    5  -0.375  -0.133   0.102
    1UNL     O2    6  -0.404   0.000   0.123
    1UNL     C5    7  -0.540   0.032   0.095
    1UNL     O3    8  -0.567   0.172   0.095
    1UNL     C6    9  -0.558   0.241  -0.029
    1UNL     C7   10  -0.420   0.248  -0.084
    1UNL     O4   11  -0.385   0.131  -0.152
    1UNL     C8   12  -0.673   0.196  -0.127
    1UNL     O5   13  -0.634   0.171  -0.253
    1UNL     C9   14  -0.731   0.058  -0.068
    1UNL     O6   15  -0.827   0.080   0.032
    1UNL    C10   16  -0.612  -0.033  -0.029
    1UNL     O7   17  -0.659  -0.163  -0.010
    1UNL    C11   18   0.008  -0.161   0.060
    1UNL    C12   19   0.146  -0.099   0.092
    1UNL    C13   20   0.122   0.022   0.191
    1UNL    C14   21   0.258   0.082   0.230
    1UNL     O8   22   0.345   0.098   0.113
    1UNL    C15   23   0.424  -0.011   0.094
    1UNL     O9   24   0.410  -0.116   0.156
    1UNL    C16   25   0.538   0.013   0.005
    1UNL    C17   26   0.598  -0.093  -0.044
    1UNL    C18   27   0.697  -0.099  -0.150
    1UNL    C19   28   0.766  -0.216  -0.190
    1UNL    C20   29   0.874  -0.206  -0.274
    1UNL    C21   30   0.915  -0.092  -0.338
    1UNL    O10   31   1.005  -0.089  -0.444
    1UNL    C22   32   0.838   0.027  -0.304
    1UNL    O11   33   0.878   0.141  -0.371
    1UNL    C23   34   0.736   0.019  -0.218
    1UNL    C24   35   0.034  -0.024   0.309
    1UNL    C25   36  -0.107  -0.063   0.266
    1UNL    O12   37  -0.193   0.047   0.307
    1UNL     H1   38  -0.159   0.121   0.092
    1UNL     H2   39  -0.240  -0.280   0.064
    1UNL     H3   40  -0.459  -0.202   0.072
    1UNL     H4   41  -0.578   0.002   0.185
    1UNL     H5   42  -0.571   0.349  -0.000
    1UNL     H6   43  -0.400   0.335  -0.158
    1UNL     H7   44  -0.362   0.264   0.001
    1UNL     H8   45  -0.297   0.087  -0.133
    1UNL     H9   46  -0.761   0.270  -0.140
    1UNL    H10   47  -0.562   0.092  -0.247
    1UNL    H11   48  -0.786   0.013  -0.150
    1UNL    H12   49  -0.792   0.151   0.087
    1UNL    H13   50  -0.539  -0.036  -0.110
    1UNL    H14   51  -0.756  -0.158   0.004
    1UNL    H15   52   0.021  -0.275   0.079
    1UNL    H16   53  -0.011  -0.153  -0.051
    1UNL    H17   54   0.190  -0.069   0.002
    1UNL    H18   55   0.217  -0.166   0.137
    1UNL    H19   56   0.082   0.107   0.131
    1UNL    H20   57   0.299   0.003   0.293
    1UNL    H21   58   0.256   0.170   0.298
    1UNL    H22   59   0.548   0.112  -0.034
    1UNL    H23   60   0.569  -0.186  -0.006
    1UNL    H24   61   0.733  -0.309  -0.145
    1UNL    H25   62   0.921  -0.300  -0.299
    1UNL    H26   63   1.023   0.001  -0.461
    1UNL    H27   64   0.807   0.205  -0.374
    1UNL    H28   65   0.682   0.109  -0.186
    1UNL    H29   66   0.038   0.061   0.381
    1UNL    H30   67   0.082  -0.097   0.370
    1UNL    H31   68  -0.141  -0.154   0.315
    1UNL    H32   69  -0.268   0.049   0.246
   0.00000   0.00000   0.00000   0.00000   0.00000   0.00000   0.00000   0.00000   0.00000
Generated with MDTraj, t= 20.0
 69
    1UNL     O1    1  -0.104   0.034  -0.087
    1UNL     C1    2  -0.125   0.028   0.033
    1UNL     C2    3  -0.120  -0.100   0.113
    1UNL     C3    4  -0.249  -0.172   0.085
    1UNL     C4    5  -0.372  -0.113   0.090
    1UNL     O2    6  -0.392   0.021   0.098
    1UNL     C5    7  -0.535   0.052   0.091
    1UNL     O3    8  -0.580   0.189   0.102
    1UNL     C6    9  -0.571   0.249  -0.026
    1UNL     C7   10  -0.428   0.239  -0.082
    1UNL     O4   11  -0.402   0.115  -0.151
    1UNL     C8   12  -0.678   0.190  -0.126
    1UNL     O5   13  -0.637   0.186  -0.253
    1UNL     C9   14  -0.726   0.052  -0.076
    1UNL     O6   15  -0.813   0.057   0.034
    1UNL    C10   16  -0.608  -0.033  -0.025
    1UNL     O7   17  -0.657  -0.153   0.034
    1UNL    C11   18  -0.004  -0.182   0.069
    1UNL    C12   19   0.127  -0.103   0.096
    1UNL    C13   20   0.122   0.011   0.189
    1UNL    C14   21   0.258   0.056   0.240
    1UNL     O8   22   0.346   0.091   0.131
    1UNL    C15   23   0.420  -0.012   0.080
    1UNL     O9   24   0.418  -0.120   0.137
    1UNL    C16   25   0.508  -0.002  -0.029
    1UNL    C17   26   0.606  -0.091  -0.050
    1UNL    C18   27   0.706  -0.089  -0.153
    1UNL    C19   28   0.774  -0.207  -0.178
    1UNL    C20   29   0.876  -0.206  -0.265
    1UNL    C21   30   0.918  -0.088  -0.334
    1UNL    O10   31   1.012  -0.085  -0.436
    1UNL    C22   32   0.848   0.031  -0.301
    1UNL    O11   33   0.885   0.139  -0.375
    1UNL    C23   34   0.743   0.029  -0.214
    1UNL    C24   35   0.026  -0.014   0.306
    1UNL    C25   36  -0.115  -0.054   0.261
    1UNL    O12   37  -0.207   0.044   0.295
    1UNL     H1   38  -0.155   0.121   0.073
    1UNL     H2   39  -0.242  -0.281   0.079
    1UNL     H3   40  -0.456  -0.186   0.088
    1UNL     H4   41  -0.567   0.007   0.178
    1UNL     H5   42  -0.575   0.356  -0.013
    1UNL     H6   43  -0.416   0.332  -0.151
    1UNL     H7   44  -0.356   0.251  -0.006
    1UNL     H8   45  -0.307   0.098  -0.130
    1UNL     H9   46  -0.775   0.253  -0.118
    1UNL    H10   47  -0.545   0.153  -0.259
    1UNL    H11   48  -0.783  -0.001  -0.154
    1UNL    H12   49  -0.761   0.093   0.112
    1UNL    H13   50  -0.550  -0.072  -0.111
    1UNL    H14   51  -0.755  -0.140   0.040
    1UNL    H15   52  -0.010  -0.277   0.132
    1UNL    H16   53  -0.013  -0.215  -0.040
    1UNL    H17   54   0.174  -0.057   0.012
    1UNL    H18   55   0.205  -0.165   0.130
    1UNL    H19   56   0.086   0.106   0.144
    1UNL    H20   57   0.307  -0.015   0.309
    1UNL    H21   58   0.231   0.147   0.300
    1UNL    H22   59   0.476   0.079  -0.107
    1UNL    H23   60   0.608  -0.183   0.013
    1UNL    H24   61   0.729  -0.302  -0.133
    1UNL    H25   62   0.924  -0.295  -0.298
    1UNL    H26   63   0.993   0.000  -0.489
    1UNL    H27   64   0.845   0.218  -0.337
    1UNL    H28   65   0.692   0.118  -0.192
    1UNL    H29   66   0.020   0.062   0.387
    1UNL    H30   67   0.077  -0.089   0.363
    1UNL    H31   68  -0.143  -0.141   0.321
    1UNL    H32   69  -0.285   0.051   0.232
   0.00000   0.00000   0.00000   0.00000   0.00000   0.00000   0.00000   0.00000   0.00000
Generated with MDTraj, t= 21.0
 69
    1UNL     O1    1  -0.146   0.015  -0.093
    1UNL     C1    2  -0.146   0.020   0.025
    1UNL     C2    3  -0.128  -0.095   0.120
    1UNL     C3    4  -0.252  -0.182   0.108
    1UNL     C4    5  -0.378  -0.122   0.093
    1UNL     O2    6  -0.404   0.007   0.118
    1UNL     C5    7  -0.546   0.043   0.107
    1UNL     O3    8  -0.553   0.181   0.100
    1UNL     C6    9  -0.559   0.247  -0.027
    1UNL     C7   10  -0.426   0.233  -0.103
    1UNL     O4   11  -0.418   0.107  -0.174
    1UNL     C8   12  -0.682   0.201  -0.118
    1UNL     O5   13  -0.647   0.200  -0.254
    1UNL     C9   14  -0.733   0.061  -0.073
    1UNL     O6   15  -0.855   0.064   0.003
    1UNL    C10   16  -0.618  -0.024  -0.011
    1UNL     O7   17  -0.663  -0.153   0.034
    1UNL    C11   18  -0.006  -0.173   0.078
    1UNL    C12   19   0.129  -0.091   0.082
    1UNL    C13   20   0.125   0.019   0.189
    1UNL    C14   21   0.265   0.057   0.237
    1UNL     O8   22   0.364   0.084   0.139
    1UNL    C15   23   0.439  -0.025   0.101
    1UNL     O9   24   0.412  -0.140   0.139
    1UNL    C16   25   0.543   0.004  -0.001
    1UNL    C17   26   0.609  -0.096  -0.058
    1UNL    C18   27   0.711  -0.093  -0.158
    1UNL    C19   28   0.784  -0.212  -0.187
    1UNL    C20   29   0.892  -0.204  -0.268
    1UNL    C21   30   0.918  -0.082  -0.339
    1UNL    O10   31   1.024  -0.074  -0.424
    1UNL    C22   32   0.849   0.036  -0.315
    1UNL    O11   33   0.887   0.148  -0.392
    1UNL    C23   34   0.750   0.029  -0.215
    1UNL    C24   35   0.036  -0.033   0.311
    1UNL    C25   36  -0.114  -0.050   0.272
    1UNL    O12   37  -0.182   0.074   0.293
    1UNL     H1   38  -0.127   0.120   0.077
    1UNL     H2   39  -0.234  -0.288   0.095
    1UNL     H3   40  -0.461  -0.181   0.080
    1UNL     H4   41  -0.587   0.010   0.194
    1UNL     H5   42  -0.557   0.349  -0.003
    1UNL     H6   43  -0.420   0.318  -0.180
    1UNL     H7   44  -0.346   0.253  -0.036
    1UNL     H8   45  -0.333   0.059  -0.164
    1UNL     H9   46  -0.772   0.274  -0.109
    1UNL    H10   47  -0.578   0.140  -0.267
    1UNL    H11   48  -0.760   0.010  -0.169
    1UNL    H12   49  -0.835   0.096   0.094
    1UNL    H13   50  -0.539  -0.052  -0.086
    1UNL    H14   51  -0.756  -0.137   0.062
    1UNL    H15   52   0.006  -0.269   0.134
    1UNL    H16   53  -0.034  -0.206  -0.032
    1UNL    H17   54   0.145  -0.046  -0.014
    1UNL    H18   55   0.214  -0.146   0.102
    1UNL    H19   56   0.074   0.113   0.165
    1UNL    H20   57   0.287  -0.030   0.297
    1UNL    H21   58   0.260   0.145   0.308
    1UNL    H22   59   0.562   0.101  -0.030
    1UNL    H23   60   0.578  -0.193  -0.037
    1UNL    H24   61   0.749  -0.297  -0.149
    1UNL    H25   62   0.959  -0.289  -0.294
    1UNL    H26   63   1.032   0.020  -0.450
    1UNL    H27   64   0.912   0.220  -0.328
    1UNL    H28   65   0.693   0.119  -0.195
    1UNL    H29   66   0.041   0.042   0.392
    1UNL    H30   67   0.067  -0.119   0.367
    1UNL    H31   68  -0.162  -0.135   0.325
    1UNL    H32   69  -0.274   0.061   0.268
   0.00000   0.00000   0.00000   0.00000   0.00000   0.00000   0.00000   0.00000   0.00000
Generated with MDTraj, t= 22.0
 69
    1UNL     O1    1  -0.180  -0.013  -0.110
    1UNL     C1    2  -0.148   0.014   0.000
    1UNL     C2    3  -0.132  -0.084   0.114
    1UNL     C3    4  -0.260  -0.169   0.125
    1UNL     C4    5  -0.381  -0.114   0.132
    1UNL     O2    6  -0.408   0.019   0.118
    1UNL     C5    7  -0.555   0.041   0.107
    1UNL     O3    8  -0.581   0.181   0.102
    1UNL     C6    9  -0.565   0.246  -0.025
    1UNL     C7   10  -0.427   0.216  -0.093
    1UNL     O4   11  -0.427   0.096  -0.167
    1UNL     C8   12  -0.680   0.198  -0.122
    1UNL     O5   13  -0.652   0.214  -0.266
    1UNL     C9   14  -0.731   0.055  -0.072
    1UNL     O6   15  -0.834   0.085   0.029
    1UNL    C10   16  -0.615  -0.029  -0.022
    1UNL     O7   17  -0.653  -0.162   0.012
    1UNL    C11   18  -0.016  -0.175   0.076
    1UNL    C12   19   0.118  -0.098   0.078
    1UNL    C13   20   0.130   0.013   0.189
    1UNL    C14   21   0.275   0.038   0.241
    1UNL     O8   22   0.369   0.073   0.145
    1UNL    C15   23   0.443  -0.038   0.100
    1UNL     O9   24   0.437  -0.157   0.131
    1UNL    C16   25   0.544  -0.011  -0.002
    1UNL    C17   26   0.616  -0.112  -0.049
    1UNL    C18   27   0.719  -0.091  -0.151
    1UNL    C19   28   0.794  -0.202  -0.189
    1UNL    C20   29   0.899  -0.193  -0.272
    1UNL    C21   30   0.925  -0.076  -0.337
    1UNL    O10   31   1.029  -0.060  -0.426
    1UNL    C22   32   0.847   0.038  -0.307
    1UNL    O11   33   0.884   0.151  -0.378
    1UNL    C23   34   0.745   0.031  -0.216
    1UNL    C24   35   0.039  -0.024   0.306
    1UNL    C25   36  -0.108  -0.019   0.262
    1UNL    O12   37  -0.173   0.102   0.279
    1UNL     H1   38  -0.116   0.114   0.010
    1UNL     H2   39  -0.248  -0.275   0.141
    1UNL     H3   40  -0.470  -0.181   0.118
    1UNL     H4   41  -0.597   0.005   0.193
    1UNL     H5   42  -0.572   0.352  -0.010
    1UNL     H6   43  -0.390   0.299  -0.162
    1UNL     H7   44  -0.360   0.203  -0.009
    1UNL     H8   45  -0.352   0.042  -0.132
    1UNL     H9   46  -0.770   0.265  -0.108
    1UNL    H10   47  -0.561   0.160  -0.274
    1UNL    H11   48  -0.785   0.013  -0.162
    1UNL    H12   49  -0.802   0.145   0.097
    1UNL    H13   50  -0.530  -0.041  -0.093
    1UNL    H14   51  -0.739  -0.158   0.059
    1UNL    H15   52  -0.017  -0.261   0.146
    1UNL    H16   53  -0.022  -0.219  -0.034
    1UNL    H17   54   0.133  -0.049  -0.017
    1UNL    H18   55   0.197  -0.166   0.079
    1UNL    H19   56   0.095   0.105   0.141
    1UNL    H20   57   0.316  -0.052   0.283
    1UNL    H21   58   0.279   0.112   0.326
    1UNL    H22   59   0.557   0.083  -0.040
    1UNL    H23   60   0.612  -0.210   0.004
    1UNL    H24   61   0.766  -0.300  -0.136
    1UNL    H25   62   0.956  -0.277  -0.289
    1UNL    H26   63   1.019   0.024  -0.472
    1UNL    H27   64   0.851   0.230  -0.324
    1UNL    H28   65   0.692   0.123  -0.194
    1UNL    H29   66   0.048   0.034   0.400
    1UNL    H30   67   0.065  -0.125   0.334
    1UNL    H31   68  -0.166  -0.088   0.329
    1UNL    H32   69  -0.271   0.086   0.261
   0.00000   0.00000   0.00000   0.00000   0.00000   0.00000   0.00000   0.00000   0.00000
Generated with MDTraj, t= 23.0
 69
    1UNL     O1    1  -0.136  -0.019  -0.120
    1UNL     C1    2  -0.115   0.005  -0.002
    1UNL     C2    3  -0.140  -0.093   0.114
    1UNL     C3    4  -0.267  -0.173   0.114
    1UNL     C4    5  -0.385  -0.121   0.110
    1UNL     O2    6  -0.404   0.018   0.106
    1UNL     C5    7  -0.548   0.049   0.103
    1UNL     O3    8  -0.581   0.194   0.104
    1UNL     C6    9  -0.582   0.258  -0.026
    1UNL     C7   10  -0.431   0.250  -0.089
    1UNL     O4   11  -0.397   0.126  -0.146
    1UNL     C8   12  -0.693   0.192  -0.116
    1UNL     O5   13  -0.651   0.194  -0.257
    1UNL     C9   14  -0.736   0.050  -0.066
    1UNL     O6   15  -0.828   0.067   0.040
    1UNL    C10   16  -0.622  -0.031  -0.015
    1UNL     O7   17  -0.672  -0.159   0.035
    1UNL    C11   18  -0.019  -0.190   0.117
    1UNL    C12   19   0.116  -0.115   0.099
    1UNL    C13   20   0.121   0.012   0.191
    1UNL    C14   21   0.273   0.032   0.231
    1UNL     O8   22   0.368   0.054   0.133
    1UNL    C15   23   0.432  -0.058   0.091
    1UNL     O9   24   0.417  -0.170   0.132
    1UNL    C16   25   0.525  -0.036  -0.016
    1UNL    C17   26   0.629  -0.120  -0.045
    1UNL    C18   27   0.734  -0.104  -0.148
    1UNL    C19   28   0.816  -0.207  -0.184
    1UNL    C20   29   0.914  -0.188  -0.286
    1UNL    C21   30   0.938  -0.062  -0.337
    1UNL    O10   31   1.021  -0.042  -0.442
    1UNL    C22   32   0.854   0.044  -0.297
    1UNL    O11   33   0.881   0.165  -0.365
    1UNL    C23   34   0.754   0.024  -0.208
    1UNL    C24   35   0.012   0.001   0.306
    1UNL    C25   36  -0.132  -0.007   0.251
    1UNL    O12   37  -0.182   0.126   0.228
    1UNL     H1   38  -0.078   0.103   0.027
    1UNL     H2   39  -0.258  -0.280   0.116
    1UNL     H3   40  -0.479  -0.177   0.132
    1UNL     H4   41  -0.600   0.020   0.187
    1UNL     H5   42  -0.613   0.362  -0.004
    1UNL     H6   43  -0.421   0.320  -0.176
    1UNL     H7   44  -0.357   0.268  -0.011
    1UNL     H8   45  -0.326   0.082  -0.095
    1UNL     H9   46  -0.789   0.248  -0.109
    1UNL    H10   47  -0.575   0.134  -0.259
    1UNL    H11   48  -0.785  -0.005  -0.152
    1UNL    H12   49  -0.788   0.120   0.116
    1UNL    H13   50  -0.552  -0.062  -0.096
    1UNL    H14   51  -0.761  -0.146   0.075
    1UNL    H15   52  -0.010  -0.239   0.218
    1UNL    H16   53  -0.032  -0.270   0.035
    1UNL    H17   54   0.133  -0.098  -0.005
    1UNL    H18   55   0.198  -0.175   0.124
    1UNL    H19   56   0.098   0.085   0.114
    1UNL    H20   57   0.325  -0.041   0.291
    1UNL    H21   58   0.289   0.127   0.289
    1UNL    H22   59   0.520   0.068  -0.067
    1UNL    H23   60   0.651  -0.197   0.025
    1UNL    H24   61   0.808  -0.303  -0.142
    1UNL    H25   62   0.982  -0.273  -0.309
    1UNL    H26   63   1.027   0.061  -0.457
    1UNL    H27   64   0.796   0.215  -0.374
    1UNL    H28   65   0.685   0.102  -0.193
    1UNL    H29   66   0.024   0.097   0.359
    1UNL    H30   67   0.030  -0.084   0.372
    1UNL    H31   68  -0.207  -0.048   0.322
    1UNL    H32   69  -0.265   0.128   0.181
   0.00000   0.00000   0.00000   0.00000   0.00000   0.00000   0.00000   0.00000   0.00000
Generated with MDTraj, t= 24.0
 69
    1UNL     O1    1  -0.131  -0.070  -0.123
    1UNL     C1    2  -0.125  -0.022  -0.015
    1UNL     C2    3  -0.133  -0.097   0.110
    1UNL     C3    4  -0.264  -0.172   0.108
    1UNL     C4    5  -0.382  -0.118   0.107
    1UNL     O2    6  -0.407   0.021   0.080
    1UNL     C5    7  -0.544   0.051   0.108
    1UNL     O3    8  -0.573   0.192   0.101
    1UNL     C6    9  -0.585   0.255  -0.028
    1UNL     C7   10  -0.441   0.270  -0.091
    1UNL     O4   11  -0.397   0.150  -0.147
    1UNL     C8   12  -0.702   0.198  -0.119
    1UNL     O5   13  -0.652   0.169  -0.252
    1UNL     C9   14  -0.751   0.059  -0.062
    1UNL     O6   15  -0.850   0.078   0.042
    1UNL    C10   16  -0.632  -0.025  -0.002
    1UNL     O7   17  -0.685  -0.142   0.056
    1UNL    C11   18  -0.008  -0.198   0.093
    1UNL    C12   19   0.139  -0.143   0.124
    1UNL    C13   20   0.144   0.006   0.171
    1UNL    C14   21   0.278   0.049   0.229
    1UNL     O8   22   0.371   0.056   0.121
    1UNL    C15   23   0.439  -0.060   0.090
    1UNL     O9   24   0.409  -0.170   0.132
    1UNL    C16   25   0.544  -0.036  -0.012
    1UNL    C17   26   0.629  -0.132  -0.053
    1UNL    C18   27   0.729  -0.100  -0.146
    1UNL    C19   28   0.810  -0.208  -0.184
    1UNL    C20   29   0.916  -0.188  -0.274
    1UNL    C21   30   0.925  -0.064  -0.330
    1UNL    O10   31   1.017  -0.032  -0.426
    1UNL    C22   32   0.848   0.050  -0.290
    1UNL    O11   33   0.865   0.176  -0.347
    1UNL    C23   34   0.745   0.024  -0.203
    1UNL    C24   35   0.041   0.018   0.284
    1UNL    C25   36  -0.108  -0.007   0.240
    1UNL    O12   37  -0.178   0.122   0.239
    1UNL     H1   38  -0.121   0.091  -0.015
    1UNL     H2   39  -0.251  -0.280   0.116
    1UNL     H3   40  -0.468  -0.170   0.103
    1UNL     H4   41  -0.566   0.038   0.208
    1UNL     H5   42  -0.619   0.356   0.013
    1UNL     H6   43  -0.449   0.342  -0.172
    1UNL     H7   44  -0.367   0.294  -0.010
    1UNL     H8   45  -0.386   0.097  -0.065
    1UNL     H9   46  -0.788   0.263  -0.124
    1UNL    H10   47  -0.564   0.139  -0.257
    1UNL    H11   48  -0.789  -0.001  -0.149
    1UNL    H12   49  -0.817   0.138   0.112
    1UNL    H13   50  -0.557  -0.051  -0.081
    1UNL    H14   51  -0.776  -0.117   0.080
    1UNL    H15   52  -0.031  -0.289   0.161
    1UNL    H16   53   0.000  -0.232  -0.013
    1UNL    H17   54   0.210  -0.161   0.048
    1UNL    H18   55   0.176  -0.203   0.205
    1UNL    H19   56   0.109   0.051   0.078
    1UNL    H20   57   0.310  -0.030   0.294
    1UNL    H21   58   0.290   0.143   0.287
    1UNL    H22   59   0.569   0.068  -0.026
    1UNL    H23   60   0.627  -0.236  -0.018
    1UNL    H24   61   0.800  -0.302  -0.133
    1UNL    H25   62   0.976  -0.273  -0.303
    1UNL    H26   63   0.998   0.057  -0.449
    1UNL    H27   64   0.780   0.219  -0.357
    1UNL    H28   65   0.676   0.108  -0.182
    1UNL    H29   66   0.045   0.122   0.318
    1UNL    H30   67   0.064  -0.057   0.361
    1UNL    H31   68  -0.162  -0.062   0.320
    1UNL    H32   69  -0.269   0.109   0.197
   0.00000   0.00000   0.00000   0.00000   0.00000   0.00000   0.00000   0.00000   0.00000
Generated with MDTraj, t= 25.0
 69
    1UNL     O1    1  -0.104  -0.083  -0.119
    1UNL     C1    2  -0.122  -0.035  -0.014
    1UNL     C2    3  -0.137  -0.115   0.114
    1UNL     C3    4  -0.267  -0.190   0.117
    1UNL     C4    5  -0.386  -0.131   0.100
    1UNL     O2    6  -0.403   0.006   0.078
    1UNL     C5    7  -0.536   0.051   0.090
    1UNL     O3    8  -0.562   0.194   0.100
    1UNL     C6    9  -0.596   0.262  -0.027
    1UNL     C7   10  -0.466   0.301  -0.103
    1UNL     O4   11  -0.407   0.180  -0.142
    1UNL     C8   12  -0.693   0.182  -0.125
    1UNL     O5   13  -0.649   0.156  -0.259
    1UNL     C9   14  -0.750   0.064  -0.049
    1UNL     O6   15  -0.820   0.103   0.065
    1UNL    C10   16  -0.637  -0.027  -0.008
    1UNL     O7   17  -0.688  -0.136   0.068
    1UNL    C11   18  -0.009  -0.210   0.123
    1UNL    C12   19   0.123  -0.132   0.098
    1UNL    C13   20   0.128   0.001   0.175
    1UNL    C14   21   0.264   0.027   0.229
    1UNL     O8   22   0.362   0.060   0.125
    1UNL    C15   23   0.444  -0.048   0.098
    1UNL     O9   24   0.423  -0.154   0.151
    1UNL    C16   25   0.545  -0.020   0.001
    1UNL    C17   26   0.614  -0.120  -0.051
    1UNL    C18   27   0.722  -0.104  -0.157
    1UNL    C19   28   0.811  -0.207  -0.193
    1UNL    C20   29   0.908  -0.182  -0.285
    1UNL    C21   30   0.939  -0.057  -0.338
    1UNL    O10   31   1.051  -0.033  -0.419
    1UNL    C22   32   0.848   0.047  -0.303
    1UNL    O11   33   0.874   0.169  -0.355
    1UNL    C23   34   0.741   0.021  -0.208
    1UNL    C24   35   0.021   0.006   0.291
    1UNL    C25   36  -0.127  -0.015   0.234
    1UNL    O12   37  -0.173   0.118   0.211
    1UNL     H1   38  -0.125   0.066  -0.003
    1UNL     H2   39  -0.263  -0.296   0.132
    1UNL     H3   40  -0.478  -0.194   0.118
    1UNL     H4   41  -0.572   0.027   0.184
    1UNL     H5   42  -0.648   0.351   0.028
    1UNL     H6   43  -0.494   0.354  -0.192
    1UNL     H7   44  -0.397   0.351  -0.028
    1UNL     H8   45  -0.411   0.120  -0.065
    1UNL     H9   46  -0.776   0.247  -0.128
    1UNL    H10   47  -0.543   0.145  -0.258
    1UNL    H11   48  -0.816   0.005  -0.117
    1UNL    H12   49  -0.769   0.163   0.123
    1UNL    H13   50  -0.586  -0.073  -0.097
    1UNL    H14   51  -0.777  -0.114   0.103
    1UNL    H15   52  -0.002  -0.250   0.233
    1UNL    H16   53  -0.020  -0.292   0.051
    1UNL    H17   54   0.143  -0.117  -0.002
    1UNL    H18   55   0.209  -0.185   0.138
    1UNL    H19   56   0.107   0.090   0.114
    1UNL    H20   57   0.316  -0.047   0.291
    1UNL    H21   58   0.255   0.116   0.292
    1UNL    H22   59   0.562   0.075  -0.029
    1UNL    H23   60   0.588  -0.215  -0.008
    1UNL    H24   61   0.802  -0.308  -0.147
    1UNL    H25   62   0.983  -0.254  -0.303
    1UNL    H26   63   1.055   0.068  -0.430
    1UNL    H27   64   0.798   0.228  -0.361
    1UNL    H28   65   0.677   0.101  -0.192
    1UNL    H29   66   0.023   0.091   0.359
    1UNL    H30   67   0.040  -0.086   0.348
    1UNL    H31   68  -0.186  -0.057   0.317
    1UNL    H32   69  -0.251   0.105   0.152
   0.00000   0.00000   0.00000   0.00000   0.00000   0.00000   0.00000   0.00000   0.00000
Generated with MDTraj, t= 26.0
 69
    1UNL     O1    1  -0.066  -0.085  -0.128
    1UNL     C1    2  -0.126  -0.040  -0.033
    1UNL     C2    3  -0.138  -0.109   0.104
    1UNL     C3    4  -0.268  -0.183   0.120
    1UNL     C4    5  -0.390  -0.129   0.094
    1UNL     O2    6  -0.405   0.001   0.057
    1UNL     C5    7  -0.532   0.045   0.097
    1UNL     O3    8  -0.546   0.190   0.090
    1UNL     C6    9  -0.584   0.260  -0.029
    1UNL     C7   10  -0.458   0.302  -0.104
    1UNL     O4   11  -0.381   0.200  -0.153
    1UNL     C8   12  -0.695   0.189  -0.114
    1UNL     O5   13  -0.647   0.137  -0.235
    1UNL     C9   14  -0.755   0.069  -0.030
    1UNL     O6   15  -0.824   0.104   0.082
    1UNL    C10   16  -0.642  -0.028   0.004
    1UNL     O7   17  -0.685  -0.142   0.070
    1UNL    C11   18  -0.025  -0.213   0.120
    1UNL    C12   19   0.111  -0.144   0.108
    1UNL    C13   20   0.118  -0.014   0.185
    1UNL    C14   21   0.254   0.013   0.246
    1UNL     O8   22   0.345   0.055   0.134
    1UNL    C15   23   0.428  -0.045   0.090
    1UNL     O9   24   0.438  -0.148   0.151
    1UNL    C16   25   0.518  -0.013  -0.019
    1UNL    C17   26   0.604  -0.103  -0.064
    1UNL    C18   27   0.718  -0.080  -0.147
    1UNL    C19   28   0.801  -0.191  -0.178
    1UNL    C20   29   0.909  -0.187  -0.269
    1UNL    C21   30   0.940  -0.067  -0.334
    1UNL    O10   31   1.050  -0.055  -0.418
    1UNL    C22   32   0.862   0.048  -0.303
    1UNL    O11   33   0.891   0.169  -0.366
    1UNL    C23   34   0.747   0.041  -0.220
    1UNL    C24   35   0.015   0.001   0.296
    1UNL    C25   36  -0.130  -0.007   0.226
    1UNL    O12   37  -0.186   0.121   0.195
    1UNL     H1   38  -0.176   0.057  -0.062
    1UNL     H2   39  -0.262  -0.285   0.155
    1UNL     H3   40  -0.475  -0.203   0.097
    1UNL     H4   41  -0.545   0.026   0.198
    1UNL     H5   42  -0.624   0.360   0.014
    1UNL     H6   43  -0.493   0.369  -0.178
    1UNL     H7   44  -0.396   0.356  -0.027
    1UNL     H8   45  -0.369   0.130  -0.083
    1UNL     H9   46  -0.769   0.259  -0.143
    1UNL    H10   47  -0.554   0.112  -0.225
    1UNL    H11   48  -0.822   0.021  -0.102
    1UNL    H12   49  -0.763   0.137   0.152
    1UNL    H13   50  -0.585  -0.051  -0.089
    1UNL    H14   51  -0.776  -0.128   0.107
    1UNL    H15   52  -0.034  -0.273   0.220
    1UNL    H16   53  -0.041  -0.278   0.033
    1UNL    H17   54   0.135  -0.118   0.012
    1UNL    H18   55   0.191  -0.210   0.145
    1UNL    H19   56   0.104   0.078   0.125
    1UNL    H20   57   0.290  -0.077   0.298
    1UNL    H21   58   0.253   0.093   0.321
    1UNL    H22   59   0.518   0.096  -0.059
    1UNL    H23   60   0.592  -0.206  -0.031
    1UNL    H24   61   0.780  -0.281  -0.136
    1UNL    H25   62   0.972  -0.277  -0.293
    1UNL    H26   63   1.055   0.040  -0.451
    1UNL    H27   64   0.819   0.232  -0.351
    1UNL    H28   65   0.681   0.130  -0.216
    1UNL    H29   66   0.017   0.096   0.348
    1UNL    H30   67   0.028  -0.074   0.377
    1UNL    H31   68  -0.181  -0.053   0.311
    1UNL    H32   69  -0.261   0.101   0.134
   0.00000   0.00000   0.00000   0.00000   0.00000   0.00000   0.00000   0.00000   0.00000
Generated with MDTraj, t= 27.0
 69
    1UNL     O1    1  -0.027  -0.089  -0.123
    1UNL     C1    2  -0.107  -0.051  -0.041
    1UNL     C2    3  -0.125  -0.122   0.096
    1UNL     C3    4  -0.255  -0.198   0.089
    1UNL     C4    5  -0.378  -0.133   0.068
    1UNL     O2    6  -0.406   0.004   0.065
    1UNL     C5    7  -0.536   0.054   0.096
    1UNL     O3    8  -0.566   0.194   0.099
    1UNL     C6    9  -0.581   0.264  -0.019
    1UNL     C7   10  -0.454   0.292  -0.097
    1UNL     O4   11  -0.390   0.174  -0.147
    1UNL     C8   12  -0.688   0.194  -0.109
    1UNL     O5   13  -0.654   0.153  -0.239
    1UNL     C9   14  -0.758   0.074  -0.030
    1UNL     O6   15  -0.828   0.118   0.084
    1UNL    C10   16  -0.647  -0.021   0.014
    1UNL     O7   17  -0.705  -0.132   0.086
    1UNL    C11   18  -0.013  -0.225   0.110
    1UNL    C12   19   0.125  -0.157   0.120
    1UNL    C13   20   0.123  -0.013   0.177
    1UNL    C14   21   0.259   0.050   0.225
    1UNL     O8   22   0.347   0.081   0.119
    1UNL    C15   23   0.413  -0.032   0.087
    1UNL     O9   24   0.393  -0.145   0.120
    1UNL    C16   25   0.532   0.004   0.000
    1UNL    C17   26   0.614  -0.093  -0.044
    1UNL    C18   27   0.725  -0.085  -0.139
    1UNL    C19   28   0.809  -0.194  -0.165
    1UNL    C20   29   0.897  -0.195  -0.272
    1UNL    C21   30   0.927  -0.073  -0.331
    1UNL    O10   31   1.038  -0.059  -0.406
    1UNL    C22   32   0.849   0.047  -0.300
    1UNL    O11   33   0.882   0.169  -0.370
    1UNL    C23   34   0.755   0.040  -0.206
    1UNL    C24   35   0.022  -0.002   0.286
    1UNL    C25   36  -0.123  -0.028   0.228
    1UNL    O12   37  -0.175   0.097   0.192
    1UNL     H1   38  -0.179   0.025  -0.070
    1UNL     H2   39  -0.249  -0.308   0.096
    1UNL     H3   40  -0.459  -0.191   0.057
    1UNL     H4   41  -0.561   0.026   0.193
    1UNL     H5   42  -0.617   0.366   0.010
    1UNL     H6   43  -0.474   0.353  -0.178
    1UNL     H7   44  -0.387   0.347  -0.021
    1UNL     H8   45  -0.393   0.116  -0.067
    1UNL     H9   46  -0.772   0.260  -0.124
    1UNL    H10   47  -0.578   0.102  -0.235
    1UNL    H11   48  -0.829   0.012  -0.082
    1UNL    H12   49  -0.783   0.193   0.128
    1UNL    H13   50  -0.593  -0.068  -0.071
    1UNL    H14   51  -0.793  -0.108   0.123
    1UNL    H15   52  -0.045  -0.287   0.198
    1UNL    H16   53  -0.017  -0.291   0.019
    1UNL    H17   54   0.157  -0.145   0.023
    1UNL    H18   55   0.204  -0.215   0.167
    1UNL    H19   56   0.076   0.055   0.102
    1UNL    H20   57   0.305  -0.020   0.299
    1UNL    H21   58   0.247   0.145   0.280
    1UNL    H22   59   0.524   0.105  -0.033
    1UNL    H23   60   0.589  -0.197  -0.024
    1UNL    H24   61   0.792  -0.284  -0.097
    1UNL    H25   62   0.956  -0.276  -0.298
    1UNL    H26   63   1.050   0.030  -0.435
    1UNL    H27   64   0.819   0.239  -0.338
    1UNL    H28   65   0.691   0.120  -0.187
    1UNL    H29   66   0.011   0.094   0.335
    1UNL    H30   67   0.036  -0.069   0.373
    1UNL    H31   68  -0.174  -0.080   0.309
    1UNL    H32   69  -0.264   0.075   0.152
   0.00000   0.00000   0.00000   0.00000   0.00000   0.00000   0.00000   0.00000   0.00000
Generated with MDTraj, t= 28.0
 69
    1UNL     O1    1  -0.026  -0.051  -0.114
    1UNL     C1    2  -0.114  -0.044  -0.036
    1UNL     C2    3  -0.128  -0.127   0.094
    1UNL     C3    4  -0.265  -0.204   0.081
    1UNL     C4    5  -0.384  -0.141   0.067
    1UNL     O2    6  -0.402  -0.007   0.057
    1UNL     C5    7  -0.528   0.038   0.104
    1UNL     O3    8  -0.548   0.182   0.105
    1UNL     C6    9  -0.570   0.259  -0.016
    1UNL     C7   10  -0.447   0.279  -0.097
    1UNL     O4   11  -0.404   0.159  -0.158
    1UNL     C8   12  -0.682   0.200  -0.096
    1UNL     O5   13  -0.659   0.185  -0.229
    1UNL     C9   14  -0.743   0.074  -0.026
    1UNL     O6   15  -0.826   0.106   0.077
    1UNL    C10   16  -0.641  -0.029   0.017
    1UNL     O7   17  -0.702  -0.136   0.091
    1UNL    C11   18  -0.007  -0.221   0.107
    1UNL    C12   19   0.131  -0.146   0.112
    1UNL    C13   20   0.118   0.003   0.169
    1UNL    C14   21   0.260   0.049   0.222
    1UNL     O8   22   0.344   0.086   0.123
    1UNL    C15   23   0.411  -0.028   0.080
    1UNL     O9   24   0.401  -0.136   0.128
    1UNL    C16   25   0.520  -0.012  -0.018
    1UNL    C17   26   0.604  -0.110  -0.046
    1UNL    C18   27   0.727  -0.085  -0.125
    1UNL    C19   28   0.810  -0.190  -0.158
    1UNL    C20   29   0.906  -0.190  -0.250
    1UNL    C21   30   0.926  -0.075  -0.334
    1UNL    O10   31   1.028  -0.063  -0.424
    1UNL    C22   32   0.846   0.039  -0.300
    1UNL    O11   33   0.881   0.164  -0.353
    1UNL    C23   34   0.750   0.032  -0.203
    1UNL    C24   35   0.012   0.008   0.278
    1UNL    C25   36  -0.130  -0.020   0.220
    1UNL    O12   37  -0.180   0.103   0.179
    1UNL     H1   38  -0.189   0.028  -0.046
    1UNL     H2   39  -0.266  -0.309   0.089
    1UNL     H3   40  -0.479  -0.199   0.078
    1UNL     H4   41  -0.542  -0.001   0.200
    1UNL     H5   42  -0.596   0.361   0.007
    1UNL     H6   43  -0.464   0.351  -0.168
    1UNL     H7   44  -0.366   0.314  -0.022
    1UNL     H8   45  -0.409   0.101  -0.078
    1UNL     H9   46  -0.769   0.270  -0.100
    1UNL    H10   47  -0.577   0.121  -0.242
    1UNL    H11   48  -0.802   0.026  -0.101
    1UNL    H12   49  -0.781   0.177   0.132
    1UNL    H13   50  -0.587  -0.061  -0.072
    1UNL    H14   51  -0.786  -0.096   0.125
    1UNL    H15   52  -0.024  -0.284   0.192
    1UNL    H16   53  -0.020  -0.290   0.017
    1UNL    H17   54   0.171  -0.143   0.015
    1UNL    H18   55   0.204  -0.202   0.168
    1UNL    H19   56   0.089   0.066   0.081
    1UNL    H20   57   0.323  -0.019   0.287
    1UNL    H21   58   0.247   0.142   0.278
    1UNL    H22   59   0.527   0.082  -0.059
    1UNL    H23   60   0.588  -0.208  -0.006
    1UNL    H24   61   0.799  -0.280  -0.110
    1UNL    H25   62   0.968  -0.280  -0.270
    1UNL    H26   63   1.031   0.039  -0.446
    1UNL    H27   64   0.817   0.233  -0.316
    1UNL    H28   65   0.690   0.121  -0.178
    1UNL    H29   66   0.004   0.105   0.324
    1UNL    H30   67   0.029  -0.059   0.365
    1UNL    H31   68  -0.197  -0.065   0.295
    1UNL    H32   69  -0.267   0.090   0.141
   0.00000   0.00000   0.00000   0.00000   0.00000   0.00000   0.00000   0.00000   0.00000
Generated with MDTraj, t= 29.0
 69
    1UNL     O1    1  -0.033   0.012  -0.076
    1UNL     C1    2  -0.130  -0.051  -0.048
    1UNL     C2    3  -0.134  -0.117   0.088
    1UNL     C3    4  -0.262  -0.199   0.113
    1UNL     C4    5  -0.380  -0.144   0.102
    1UNL     O2    6  -0.410  -0.021   0.048
    1UNL     C5    7  -0.531   0.033   0.090
    1UNL     O3    8  -0.525   0.173   0.106
    1UNL     C6    9  -0.558   0.253  -0.007
    1UNL     C7   10  -0.440   0.264  -0.101
    1UNL     O4   11  -0.410   0.149  -0.172
    1UNL     C8   12  -0.690   0.206  -0.083
    1UNL     O5   13  -0.676   0.193  -0.220
    1UNL     C9   14  -0.758   0.076  -0.021
    1UNL     O6   15  -0.810   0.103   0.104
    1UNL    C10   16  -0.646  -0.029  -0.004
    1UNL     O7   17  -0.694  -0.159   0.039
    1UNL    C11   18  -0.007  -0.207   0.097
    1UNL    C12   19   0.126  -0.123   0.095
    1UNL    C13   20   0.113   0.016   0.166
    1UNL    C14   21   0.251   0.047   0.225
    1UNL     O8   22   0.338   0.065   0.119
    1UNL    C15   23   0.422  -0.044   0.101
    1UNL     O9   24   0.419  -0.144   0.171
    1UNL    C16   25   0.515  -0.024  -0.019
    1UNL    C17   26   0.616  -0.103  -0.034
    1UNL    C18   27   0.719  -0.087  -0.137
    1UNL    C19   28   0.805  -0.198  -0.170
    1UNL    C20   29   0.895  -0.193  -0.274
    1UNL    C21   30   0.932  -0.067  -0.327
    1UNL    O10   31   1.044  -0.064  -0.404
    1UNL    C22   32   0.851   0.043  -0.300
    1UNL    O11   33   0.879   0.152  -0.377
    1UNL    C23   34   0.749   0.031  -0.203
    1UNL    C24   35   0.009   0.008   0.271
    1UNL    C25   36  -0.131  -0.007   0.209
    1UNL    O12   37  -0.182   0.121   0.162
    1UNL     H1   38  -0.214  -0.059  -0.123
    1UNL     H2   39  -0.258  -0.297   0.161
    1UNL     H3   40  -0.479  -0.200   0.116
    1UNL     H4   41  -0.546  -0.014   0.182
    1UNL     H5   42  -0.565   0.350   0.033
    1UNL     H6   43  -0.475   0.330  -0.170
    1UNL     H7   44  -0.355   0.314  -0.041
    1UNL     H8   45  -0.387   0.076  -0.112
    1UNL     H9   46  -0.769   0.287  -0.067
    1UNL    H10   47  -0.578   0.168  -0.237
    1UNL    H11   48  -0.834   0.035  -0.086
    1UNL    H12   49  -0.733   0.113   0.164
    1UNL    H13   50  -0.594  -0.049  -0.098
    1UNL    H14   51  -0.770  -0.148   0.101
    1UNL    H15   52  -0.022  -0.258   0.189
    1UNL    H16   53  -0.018  -0.283   0.013
    1UNL    H17   54   0.164  -0.108  -0.006
    1UNL    H18   55   0.197  -0.182   0.144
    1UNL    H19   56   0.092   0.073   0.072
    1UNL    H20   57   0.294  -0.038   0.282
    1UNL    H21   58   0.262   0.136   0.285
    1UNL    H22   59   0.512   0.064  -0.094
    1UNL    H23   60   0.619  -0.183   0.041
    1UNL    H24   61   0.788  -0.290  -0.110
    1UNL    H25   62   0.954  -0.273  -0.315
    1UNL    H26   63   1.045   0.025  -0.435
    1UNL    H27   64   0.818   0.228  -0.351
    1UNL    H28   65   0.695   0.117  -0.177
    1UNL    H29   66   0.009   0.105   0.321
    1UNL    H30   67   0.027  -0.066   0.350
    1UNL    H31   68  -0.210  -0.043   0.280
    1UNL    H32   69  -0.275   0.111   0.129
   0.00000   0.00000   0.00000   0.00000   0.00000   0.00000   0.00000   0.00000   0.00000
Generated with MDTraj, t= 30.0
 69
    1UNL     O1    1  -0.080   0.051  -0.064
    1UNL     C1    2  -0.134  -0.057  -0.041
    1UNL     C2    3  -0.133  -0.120   0.094
    1UNL     C3    4  -0.262  -0.205   0.102
    1UNL     C4    5  -0.380  -0.153   0.079
    1UNL     O2    6  -0.403  -0.022   0.042
    1UNL     C5    7  -0.530   0.023   0.077
    1UNL     O3    8  -0.531   0.160   0.102
    1UNL     C6    9  -0.566   0.252  -0.008
    1UNL     C7   10  -0.451   0.263  -0.113
    1UNL     O4   11  -0.444   0.134  -0.167
    1UNL     C8   12  -0.701   0.212  -0.077
    1UNL     O5   13  -0.699   0.218  -0.220
    1UNL     C9   14  -0.759   0.079  -0.017
    1UNL     O6   15  -0.804   0.095   0.118
    1UNL    C10   16  -0.640  -0.024  -0.022
    1UNL     O7   17  -0.687  -0.153   0.013
    1UNL    C11   18  -0.002  -0.208   0.104
    1UNL    C12   19   0.135  -0.129   0.098
    1UNL    C13   20   0.128   0.016   0.164
    1UNL    C14   21   0.260   0.058   0.221
    1UNL     O8   22   0.357   0.084   0.120
    1UNL    C15   23   0.446  -0.021   0.103
    1UNL     O9   24   0.431  -0.123   0.165
    1UNL    C16   25   0.554  -0.009   0.002
    1UNL    C17   26   0.618  -0.120  -0.044
    1UNL    C18   27   0.730  -0.107  -0.139
    1UNL    C19   28   0.813  -0.218  -0.161
    1UNL    C20   29   0.911  -0.200  -0.256
    1UNL    C21   30   0.931  -0.081  -0.325
    1UNL    O10   31   1.029  -0.057  -0.420
    1UNL    C22   32   0.846   0.031  -0.303
    1UNL    O11   33   0.874   0.153  -0.356
    1UNL    C23   34   0.739   0.006  -0.222
    1UNL    C24   35   0.017   0.021   0.271
    1UNL    C25   36  -0.123  -0.014   0.217
    1UNL    O12   37  -0.192   0.110   0.191
    1UNL     H1   38  -0.173  -0.113  -0.118
    1UNL     H2   39  -0.252  -0.311   0.112
    1UNL     H3   40  -0.470  -0.196   0.094
    1UNL     H4   41  -0.542  -0.023   0.172
    1UNL     H5   42  -0.571   0.348   0.034
    1UNL     H6   43  -0.475   0.338  -0.176
    1UNL     H7   44  -0.357   0.294  -0.056
    1UNL     H8   45  -0.388   0.075  -0.112
    1UNL     H9   46  -0.777   0.290  -0.042
    1UNL    H10   47  -0.638   0.159  -0.254
    1UNL    H11   48  -0.842   0.042  -0.078
    1UNL    H12   49  -0.728   0.137   0.165
    1UNL    H13   50  -0.591  -0.027  -0.117
    1UNL    H14   51  -0.759  -0.152   0.078
    1UNL    H15   52  -0.016  -0.257   0.198
    1UNL    H16   53  -0.007  -0.283   0.021
    1UNL    H17   54   0.174  -0.126  -0.008
    1UNL    H18   55   0.201  -0.181   0.159
    1UNL    H19   56   0.103   0.077   0.074
    1UNL    H20   57   0.313  -0.005   0.295
    1UNL    H21   58   0.247   0.157   0.261
    1UNL    H22   59   0.598   0.086  -0.004
    1UNL    H23   60   0.588  -0.216  -0.011
    1UNL    H24   61   0.799  -0.313  -0.108
    1UNL    H25   62   0.969  -0.283  -0.288
    1UNL    H26   63   1.026   0.040  -0.448
    1UNL    H27   64   0.807   0.222  -0.328
    1UNL    H28   65   0.676   0.093  -0.206
    1UNL    H29   66   0.019   0.113   0.330
    1UNL    H30   67   0.030  -0.061   0.343
    1UNL    H31   68  -0.195  -0.056   0.293
    1UNL    H32   69  -0.273   0.095   0.136
   0.00000   0.00000   0.00000   0.00000   0.00000   0.00000   0.00000   0.00000   0.00000
Generated with MDTraj, t= 31.0
 69
    1UNL     O1    1  -0.070   0.083  -0.028
    1UNL     C1    2  -0.122  -0.021  -0.025
    1UNL     C2    3  -0.125  -0.117   0.092
    1UNL     C3    4  -0.245  -0.208   0.087
    1UNL     C4    5  -0.365  -0.155   0.064
    1UNL     O2    6  -0.389  -0.025   0.031
    1UNL     C5    7  -0.519   0.021   0.073
    1UNL     O3    8  -0.527   0.166   0.097
    1UNL     C6    9  -0.567   0.258  -0.009
    1UNL     C7   10  -0.450   0.257  -0.118
    1UNL     O4   11  -0.456   0.140  -0.193
    1UNL     C8   12  -0.712   0.219  -0.061
    1UNL     O5   13  -0.724   0.235  -0.206
    1UNL     C9   14  -0.753   0.073  -0.028
    1UNL     O6   15  -0.825   0.068   0.096
    1UNL    C10   16  -0.632  -0.033  -0.021
    1UNL     O7   17  -0.684  -0.156   0.031
    1UNL    C11   18   0.008  -0.201   0.085
    1UNL    C12   19   0.141  -0.125   0.105
    1UNL    C13   20   0.129   0.019   0.163
    1UNL    C14   21   0.259   0.076   0.212
    1UNL     O8   22   0.363   0.079   0.110
    1UNL    C15   23   0.437  -0.035   0.098
    1UNL     O9   24   0.419  -0.138   0.157
    1UNL    C16   25   0.534  -0.014  -0.002
    1UNL    C17   26   0.628  -0.109  -0.030
    1UNL    C18   27   0.729  -0.098  -0.131
    1UNL    C19   28   0.808  -0.204  -0.158
    1UNL    C20   29   0.907  -0.202  -0.259
    1UNL    C21   30   0.932  -0.087  -0.324
    1UNL    O10   31   1.032  -0.076  -0.420
    1UNL    C22   32   0.845   0.023  -0.301
    1UNL    O11   33   0.874   0.129  -0.384
    1UNL    C23   34   0.753   0.026  -0.194
    1UNL    C24   35   0.016   0.030   0.269
    1UNL    C25   36  -0.121  -0.028   0.229
    1UNL    O12   37  -0.212   0.087   0.225
    1UNL     H1   38  -0.165  -0.054  -0.122
    1UNL     H2   39  -0.249  -0.310   0.121
    1UNL     H3   40  -0.455  -0.217   0.066
    1UNL     H4   41  -0.529  -0.020   0.169
    1UNL     H5   42  -0.571   0.359   0.027
    1UNL     H6   43  -0.458   0.331  -0.184
    1UNL     H7   44  -0.354   0.272  -0.062
    1UNL     H8   45  -0.429   0.070  -0.127
    1UNL     H9   46  -0.791   0.284  -0.013
    1UNL    H10   47  -0.641   0.190  -0.248
    1UNL    H11   48  -0.829   0.047  -0.107
    1UNL    H12   49  -0.788   0.135   0.158
    1UNL    H13   50  -0.610  -0.055  -0.124
    1UNL    H14   51  -0.759  -0.146   0.093
    1UNL    H15   52   0.001  -0.271   0.168
    1UNL    H16   53   0.002  -0.250  -0.011
    1UNL    H17   54   0.190  -0.109   0.004
    1UNL    H18   55   0.196  -0.181   0.173
    1UNL    H19   56   0.097   0.087   0.081
    1UNL    H20   57   0.301   0.002   0.282
    1UNL    H21   58   0.252   0.171   0.262
    1UNL    H22   59   0.523   0.077  -0.050
    1UNL    H23   60   0.641  -0.202   0.026
    1UNL    H24   61   0.795  -0.288  -0.104
    1UNL    H25   62   0.964  -0.295  -0.271
    1UNL    H26   63   1.040   0.020  -0.449
    1UNL    H27   64   0.803   0.195  -0.385
    1UNL    H28   65   0.707   0.117  -0.155
    1UNL    H29   66  -0.008   0.135   0.293
    1UNL    H30   67   0.052  -0.004   0.366
    1UNL    H31   68  -0.165  -0.093   0.307
    1UNL    H32   69  -0.281   0.072   0.160
   0.00000   0.00000   0.00000   0.00000   0.00000   0.00000   0.00000   0.00000   0.00000
Generated with MDTraj, t= 32.0
 69
    1UNL     O1    1  -0.057   0.108  -0.013
    1UNL     C1    2  -0.121   0.006  -0.017
    1UNL     C2    3  -0.124  -0.106   0.092
    1UNL     C3    4  -0.237  -0.193   0.070
    1UNL     C4    5  -0.361  -0.144   0.043
    1UNL     O2    6  -0.391  -0.011   0.028
    1UNL     C5    7  -0.529   0.025   0.065
    1UNL     O3    8  -0.545   0.166   0.101
    1UNL     C6    9  -0.577   0.253  -0.009
    1UNL     C7   10  -0.450   0.255  -0.106
    1UNL     O4   11  -0.453   0.156  -0.201
    1UNL     C8   12  -0.720   0.205  -0.063
    1UNL     O5   13  -0.722   0.211  -0.212
    1UNL     C9   14  -0.759   0.059  -0.025
    1UNL     O6   15  -0.822   0.063   0.105
    1UNL    C10   16  -0.633  -0.037  -0.024
    1UNL     O7   17  -0.681  -0.161   0.024
    1UNL    C11   18   0.007  -0.186   0.074
    1UNL    C12   19   0.131  -0.102   0.086
    1UNL    C13   20   0.125   0.018   0.177
    1UNL    C14   21   0.258   0.070   0.224
    1UNL     O8   22   0.349   0.093   0.116
    1UNL    C15   23   0.422  -0.019   0.090
    1UNL     O9   24   0.425  -0.124   0.149
    1UNL    C16   25   0.525  -0.010  -0.009
    1UNL    C17   26   0.624  -0.099  -0.035
    1UNL    C18   27   0.736  -0.096  -0.127
    1UNL    C19   28   0.817  -0.210  -0.140
    1UNL    C20   29   0.919  -0.209  -0.237
    1UNL    C21   30   0.935  -0.104  -0.323
    1UNL    O10   31   1.020  -0.095  -0.436
    1UNL    C22   32   0.858   0.014  -0.307
    1UNL    O11   33   0.892   0.126  -0.388
    1UNL    C23   34   0.752   0.013  -0.215
    1UNL    C24   35   0.023  -0.013   0.293
    1UNL    C25   36  -0.121  -0.039   0.237
    1UNL    O12   37  -0.206   0.080   0.246
    1UNL     H1   38  -0.178  -0.009  -0.110
    1UNL     H2   39  -0.221  -0.300   0.070
    1UNL     H3   40  -0.448  -0.219   0.027
    1UNL     H4   41  -0.531  -0.024   0.159
    1UNL     H5   42  -0.591   0.356   0.031
    1UNL     H6   43  -0.441   0.341  -0.158
    1UNL     H7   44  -0.355   0.247  -0.052
    1UNL     H8   45  -0.432   0.075  -0.148
    1UNL     H9   46  -0.799   0.269  -0.022
    1UNL    H10   47  -0.630   0.179  -0.242
    1UNL    H11   48  -0.839   0.020  -0.096
    1UNL    H12   49  -0.767   0.107   0.171
    1UNL    H13   50  -0.608  -0.056  -0.128
    1UNL    H14   51  -0.746  -0.154   0.098
    1UNL    H15   52   0.009  -0.266   0.149
    1UNL    H16   53   0.001  -0.221  -0.025
    1UNL    H17   54   0.151  -0.061  -0.018
    1UNL    H18   55   0.205  -0.165   0.131
    1UNL    H19   56   0.079   0.107   0.133
    1UNL    H20   57   0.295  -0.012   0.290
    1UNL    H21   58   0.256   0.163   0.280
    1UNL    H22   59   0.530   0.085  -0.075
    1UNL    H23   60   0.620  -0.188   0.023
    1UNL    H24   61   0.804  -0.299  -0.063
    1UNL    H25   62   0.975  -0.299  -0.253
    1UNL    H26   63   1.009  -0.014  -0.483
    1UNL    H27   64   0.820   0.188  -0.382
    1UNL    H28   65   0.705   0.106  -0.203
    1UNL    H29   66   0.025   0.067   0.370
    1UNL    H30   67   0.054  -0.098   0.355
    1UNL    H31   68  -0.158  -0.112   0.309
    1UNL    H32   69  -0.286   0.069   0.185
   0.00000   0.00000   0.00000   0.00000   0.00000   0.00000   0.00000   0.00000   0.00000
Generated with MDTraj, t= 33.0
 69
    1UNL     O1    1  -0.065   0.125  -0.024
    1UNL     C1    2  -0.130   0.021  -0.026
    1UNL     C2    3  -0.123  -0.099   0.068
    1UNL     C3    4  -0.241  -0.187   0.063
    1UNL     C4    5  -0.369  -0.142   0.060
    1UNL     O2    6  -0.396  -0.009   0.069
    1UNL     C5    7  -0.539   0.026   0.082
    1UNL     O3    8  -0.544   0.172   0.096
    1UNL     C6    9  -0.600   0.256  -0.012
    1UNL     C7   10  -0.487   0.284  -0.108
    1UNL     O4   11  -0.443   0.157  -0.150
    1UNL     C8   12  -0.726   0.195  -0.082
    1UNL     O5   13  -0.705   0.180  -0.226
    1UNL     C9   14  -0.761   0.058  -0.022
    1UNL     O6   15  -0.820   0.062   0.112
    1UNL    C10   16  -0.629  -0.035  -0.022
    1UNL     O7   17  -0.661  -0.167   0.013
    1UNL    C11   18   0.014  -0.173   0.034
    1UNL    C12   19   0.144  -0.092   0.048
    1UNL    C13   20   0.129   0.010   0.161
    1UNL    C14   21   0.257   0.048   0.231
    1UNL     O8   22   0.361   0.101   0.155
    1UNL    C15   23   0.443  -0.004   0.108
    1UNL     O9   24   0.433  -0.118   0.153
    1UNL    C16   25   0.548   0.024   0.013
    1UNL    C17   26   0.625  -0.078  -0.028
    1UNL    C18   27   0.723  -0.094  -0.141
    1UNL    C19   28   0.800  -0.212  -0.145
    1UNL    C20   29   0.897  -0.220  -0.240
    1UNL    C21   30   0.932  -0.109  -0.313
    1UNL    O10   31   1.032  -0.110  -0.404
    1UNL    C22   32   0.853   0.009  -0.310
    1UNL    O11   33   0.885   0.103  -0.402
    1UNL    C23   34   0.743   0.014  -0.223
    1UNL    C24   35   0.022  -0.039   0.269
    1UNL    C25   36  -0.121  -0.048   0.218
    1UNL    O12   37  -0.187   0.074   0.240
    1UNL     H1   38  -0.192   0.014  -0.109
    1UNL     H2   39  -0.222  -0.294   0.053
    1UNL     H3   40  -0.445  -0.211   0.054
    1UNL     H4   41  -0.548  -0.023   0.177
    1UNL     H5   42  -0.638   0.346   0.048
    1UNL     H6   43  -0.507   0.342  -0.189
    1UNL     H7   44  -0.401   0.328  -0.060
    1UNL     H8   45  -0.414   0.115  -0.065
    1UNL     H9   46  -0.807   0.265  -0.075
    1UNL    H10   47  -0.631   0.131  -0.244
    1UNL    H11   48  -0.837   0.016  -0.097
    1UNL    H12   49  -0.754   0.096   0.178
    1UNL    H13   50  -0.582  -0.040  -0.119
    1UNL    H14   51  -0.720  -0.170   0.089
    1UNL    H15   52   0.011  -0.268   0.093
    1UNL    H16   53   0.005  -0.195  -0.066
    1UNL    H17   54   0.156  -0.025  -0.043
    1UNL    H18   55   0.230  -0.157   0.071
    1UNL    H19   56   0.088   0.108   0.132
    1UNL    H20   57   0.302  -0.045   0.277
    1UNL    H21   58   0.227   0.120   0.308
    1UNL    H22   59   0.565   0.119  -0.030
    1UNL    H23   60   0.580  -0.172   0.009
    1UNL    H24   61   0.777  -0.296  -0.082
    1UNL    H25   62   0.956  -0.311  -0.249
    1UNL    H26   63   1.038  -0.013  -0.440
    1UNL    H27   64   0.812   0.166  -0.412
    1UNL    H28   65   0.677   0.104  -0.224
    1UNL    H29   66   0.023   0.014   0.367
    1UNL    H30   67   0.059  -0.137   0.300
    1UNL    H31   68  -0.160  -0.123   0.286
    1UNL    H32   69  -0.270   0.064   0.191
   0.00000   0.00000   0.00000   0.00000   0.00000   0.00000   0.00000   0.00000   0.00000
Generated with MDTraj, t= 34.0
 69
    1UNL     O1    1  -0.045   0.136  -0.034
    1UNL     C1    2  -0.116   0.044  -0.036
    1UNL     C2    3  -0.114  -0.079   0.052
    1UNL     C3    4  -0.236  -0.163   0.033
    1UNL     C4    5  -0.357  -0.112   0.043
    1UNL     O2    6  -0.402   0.019   0.064
    1UNL     C5    7  -0.538   0.032   0.095
    1UNL     O3    8  -0.579   0.174   0.119
    1UNL     C6    9  -0.609   0.243   0.002
    1UNL     C7   10  -0.483   0.283  -0.076
    1UNL     O4   11  -0.432   0.172  -0.141
    1UNL     C8   12  -0.722   0.172  -0.091
    1UNL     O5   13  -0.683   0.172  -0.226
    1UNL     C9   14  -0.758   0.032  -0.035
    1UNL     O6   15  -0.830   0.038   0.087
    1UNL    C10   16  -0.627  -0.050  -0.002
    1UNL     O7   17  -0.651  -0.178   0.049
    1UNL    C11   18   0.016  -0.161   0.021
    1UNL    C12   19   0.144  -0.080   0.046
    1UNL    C13   20   0.121   0.018   0.167
    1UNL    C14   21   0.253   0.059   0.233
    1UNL     O8   22   0.353   0.090   0.140
    1UNL    C15   23   0.430  -0.022   0.106
    1UNL     O9   24   0.420  -0.131   0.163
    1UNL    C16   25   0.538  -0.000   0.007
    1UNL    C17   26   0.612  -0.106  -0.029
    1UNL    C18   27   0.716  -0.093  -0.127
    1UNL    C19   28   0.797  -0.204  -0.139
    1UNL    C20   29   0.905  -0.209  -0.227
    1UNL    C21   30   0.927  -0.110  -0.321
    1UNL    O10   31   1.033  -0.118  -0.411
    1UNL    C22   32   0.850   0.005  -0.309
    1UNL    O11   33   0.879   0.102  -0.400
    1UNL    C23   34   0.750   0.008  -0.213
    1UNL    C24   35   0.026  -0.047   0.265
    1UNL    C25   36  -0.114  -0.040   0.208
    1UNL    O12   37  -0.183   0.086   0.230
    1UNL     H1   38  -0.192   0.043  -0.121
    1UNL     H2   39  -0.217  -0.268   0.034
    1UNL     H3   40  -0.438  -0.186   0.032
    1UNL     H4   41  -0.552  -0.024   0.187
    1UNL     H5   42  -0.668   0.333   0.045
    1UNL     H6   43  -0.506   0.352  -0.151
    1UNL     H7   44  -0.409   0.334  -0.017
    1UNL     H8   45  -0.414   0.100  -0.078
    1UNL     H9   46  -0.812   0.229  -0.082
    1UNL    H10   47  -0.580   0.165  -0.226
    1UNL    H11   48  -0.822  -0.032  -0.104
    1UNL    H12   49  -0.791   0.108   0.145
    1UNL    H13   50  -0.576  -0.067  -0.098
    1UNL    H14   51  -0.713  -0.175   0.123
    1UNL    H15   52   0.009  -0.260   0.071
    1UNL    H16   53   0.005  -0.188  -0.080
    1UNL    H17   54   0.175  -0.014  -0.037
    1UNL    H18   55   0.235  -0.146   0.072
    1UNL    H19   56   0.072   0.109   0.130
    1UNL    H20   57   0.287  -0.034   0.285
    1UNL    H21   58   0.239   0.149   0.296
    1UNL    H22   59   0.552   0.096  -0.029
    1UNL    H23   60   0.593  -0.204   0.007
    1UNL    H24   61   0.786  -0.279  -0.073
    1UNL    H25   62   0.966  -0.295  -0.233
    1UNL    H26   63   1.020  -0.040  -0.467
    1UNL    H27   64   0.799   0.155  -0.427
    1UNL    H28   65   0.702   0.102  -0.205
    1UNL    H29   66   0.031   0.010   0.361
    1UNL    H30   67   0.062  -0.147   0.287
    1UNL    H31   68  -0.161  -0.121   0.266
    1UNL    H32   69  -0.270   0.073   0.182
   0.00000   0.00000   0.00000   0.00000   0.00000   0.00000   0.00000   0.00000   0.00000
Generated with MDTraj, t= 35.0
 69
    1UNL     O1    1  -0.024   0.140  -0.046
    1UNL     C1    2  -0.119   0.066  -0.027
    1UNL     C2    3  -0.111  -0.064   0.056
    1UNL     C3    4  -0.234  -0.155   0.017
    1UNL     C4    5  -0.359  -0.116   0.028
    1UNL     O2    6  -0.405   0.009   0.066
    1UNL     C5    7  -0.542   0.016   0.101
    1UNL     O3    8  -0.590   0.157   0.114
    1UNL     C6    9  -0.622   0.238   0.003
    1UNL     C7   10  -0.502   0.297  -0.068
    1UNL     O4   11  -0.416   0.202  -0.126
    1UNL     C8   12  -0.727   0.163  -0.087
    1UNL     O5   13  -0.681   0.170  -0.218
    1UNL     C9   14  -0.763   0.019  -0.034
    1UNL     O6   15  -0.846   0.026   0.074
    1UNL    C10   16  -0.636  -0.066   0.007
    1UNL     O7   17  -0.677  -0.194   0.044
    1UNL    C11   18   0.023  -0.136   0.020
    1UNL    C12   19   0.155  -0.073   0.060
    1UNL    C13   20   0.135   0.037   0.171
    1UNL    C14   21   0.279   0.064   0.232
    1UNL     O8   22   0.375   0.080   0.134
    1UNL    C15   23   0.434  -0.032   0.097
    1UNL     O9   24   0.414  -0.142   0.143
    1UNL    C16   25   0.536  -0.022  -0.014
    1UNL    C17   26   0.633  -0.117  -0.020
    1UNL    C18   27   0.733  -0.121  -0.123
    1UNL    C19   28   0.827  -0.226  -0.133
    1UNL    C20   29   0.917  -0.221  -0.235
    1UNL    C21   30   0.928  -0.108  -0.316
    1UNL    O10   31   1.017  -0.109  -0.418
    1UNL    C22   32   0.835   0.002  -0.303
    1UNL    O11   33   0.856   0.114  -0.374
    1UNL    C23   34   0.741  -0.011  -0.208
    1UNL    C24   35   0.028  -0.001   0.272
    1UNL    C25   36  -0.112  -0.020   0.207
    1UNL    O12   37  -0.191   0.103   0.216
    1UNL     H1   38  -0.211   0.100  -0.059
    1UNL     H2   39  -0.206  -0.255  -0.017
    1UNL     H3   40  -0.442  -0.196   0.020
    1UNL     H4   41  -0.552  -0.034   0.196
    1UNL     H5   42  -0.683   0.325   0.040
    1UNL     H6   43  -0.524   0.379  -0.132
    1UNL     H7   44  -0.442   0.350   0.008
    1UNL     H8   45  -0.408   0.124  -0.065
    1UNL     H9   46  -0.821   0.220  -0.090
    1UNL    H10   47  -0.576   0.166  -0.222
    1UNL    H11   48  -0.815  -0.043  -0.111
    1UNL    H12   49  -0.799   0.077   0.143
    1UNL    H13   50  -0.576  -0.069  -0.087
    1UNL    H14   51  -0.739  -0.192   0.122
    1UNL    H15   52   0.008  -0.228   0.078
    1UNL    H16   53   0.017  -0.167  -0.080
    1UNL    H17   54   0.210  -0.033  -0.029
    1UNL    H18   55   0.226  -0.159   0.100
    1UNL    H19   56   0.097   0.121   0.111
    1UNL    H20   57   0.310  -0.016   0.302
    1UNL    H21   58   0.274   0.168   0.271
    1UNL    H22   59   0.526   0.074  -0.079
    1UNL    H23   60   0.655  -0.190   0.061
    1UNL    H24   61   0.819  -0.315  -0.057
    1UNL    H25   62   0.996  -0.296  -0.246
    1UNL    H26   63   1.029  -0.019  -0.452
    1UNL    H27   64   0.767   0.162  -0.382
    1UNL    H28   65   0.670   0.066  -0.197
    1UNL    H29   66   0.026   0.080   0.348
    1UNL    H30   67   0.063  -0.094   0.317
    1UNL    H31   68  -0.170  -0.098   0.262
    1UNL    H32   69  -0.282   0.089   0.184
   0.00000   0.00000   0.00000   0.00000   0.00000   0.00000   0.00000   0.00000   0.00000
Generated with MDTraj, t= 36.0
 69
    1UNL     O1    1  -0.023   0.114  -0.075
    1UNL     C1    2  -0.118   0.044  -0.043
    1UNL     C2    3  -0.110  -0.065   0.056
    1UNL     C3    4  -0.233  -0.156   0.039
    1UNL     C4    5  -0.356  -0.105   0.048
    1UNL     O2    6  -0.415   0.020   0.060
    1UNL     C5    7  -0.554   0.019   0.097
    1UNL     O3    8  -0.616   0.152   0.123
    1UNL     C6    9  -0.648   0.243   0.016
    1UNL     C7   10  -0.534   0.315  -0.041
    1UNL     O4   11  -0.448   0.231  -0.118
    1UNL     C8   12  -0.729   0.159  -0.090
    1UNL     O5   13  -0.680   0.163  -0.225
    1UNL     C9   14  -0.769   0.017  -0.035
    1UNL     O6   15  -0.837   0.016   0.086
    1UNL    C10   16  -0.636  -0.062  -0.015
    1UNL     O7   17  -0.664  -0.200   0.008
    1UNL    C11   18   0.018  -0.149   0.036
    1UNL    C12   19   0.146  -0.061   0.043
    1UNL    C13   20   0.136   0.053   0.158
    1UNL    C14   21   0.278   0.068   0.228
    1UNL     O8   22   0.392   0.076   0.144
    1UNL    C15   23   0.467  -0.047   0.131
    1UNL     O9   24   0.414  -0.152   0.169
    1UNL    C16   25   0.582  -0.034   0.044
    1UNL    C17   26   0.628  -0.132  -0.029
    1UNL    C18   27   0.744  -0.118  -0.121
    1UNL    C19   28   0.824  -0.227  -0.148
    1UNL    C20   29   0.922  -0.225  -0.241
    1UNL    C21   30   0.941  -0.110  -0.323
    1UNL    O10   31   1.040  -0.098  -0.422
    1UNL    C22   32   0.851  -0.002  -0.306
    1UNL    O11   33   0.851   0.108  -0.398
    1UNL    C23   34   0.748  -0.011  -0.216
    1UNL    C24   35   0.028   0.030   0.260
    1UNL    C25   36  -0.110  -0.010   0.204
    1UNL    O12   37  -0.202   0.103   0.225
    1UNL     H1   38  -0.216   0.091  -0.067
    1UNL     H2   39  -0.218  -0.261   0.026
    1UNL     H3   40  -0.437  -0.165   0.030
    1UNL     H4   41  -0.568  -0.051   0.179
    1UNL     H5   42  -0.718   0.316   0.055
    1UNL     H6   43  -0.566   0.396  -0.103
    1UNL     H7   44  -0.484   0.370   0.040
    1UNL     H8   45  -0.409   0.169  -0.053
    1UNL     H9   46  -0.822   0.220  -0.100
    1UNL    H10   47  -0.584   0.161  -0.231
    1UNL    H11   48  -0.830  -0.044  -0.102
    1UNL    H12   49  -0.789   0.074   0.149
    1UNL    H13   50  -0.565  -0.046  -0.104
    1UNL    H14   51  -0.724  -0.218   0.083
    1UNL    H15   52   0.025  -0.217   0.118
    1UNL    H16   53   0.002  -0.203  -0.056
    1UNL    H17   54   0.162  -0.022  -0.063
    1UNL    H18   55   0.232  -0.137   0.062
    1UNL    H19   56   0.109   0.136   0.091
    1UNL    H20   57   0.299  -0.022   0.284
    1UNL    H21   58   0.274   0.159   0.288
    1UNL    H22   59   0.625   0.060   0.045
    1UNL    H23   60   0.598  -0.231  -0.004
    1UNL    H24   61   0.806  -0.318  -0.090
    1UNL    H25   62   0.980  -0.311  -0.263
    1UNL    H26   63   1.012  -0.021  -0.483
    1UNL    H27   64   0.759   0.149  -0.405
    1UNL    H28   65   0.672   0.071  -0.202
    1UNL    H29   66   0.015   0.126   0.315
    1UNL    H30   67   0.070  -0.053   0.318
    1UNL    H31   68  -0.166  -0.091   0.259
    1UNL    H32   69  -0.278   0.089   0.164
   0.00000   0.00000   0.00000   0.00000   0.00000   0.00000   0.00000   0.00000   0.00000
Generated with MDTraj, t= 37.0
 69
    1UNL     O1    1  -0.031   0.086  -0.109
    1UNL     C1    2  -0.119   0.038  -0.048
    1UNL     C2    3  -0.111  -0.063   0.068
    1UNL     C3    4  -0.230  -0.153   0.069
    1UNL     C4    5  -0.356  -0.106   0.059
    1UNL     O2    6  -0.407   0.020   0.046
    1UNL     C5    7  -0.542   0.023   0.079
    1UNL     O3    8  -0.593   0.147   0.113
    1UNL     C6    9  -0.666   0.241   0.028
    1UNL     C7   10  -0.566   0.330  -0.034
    1UNL     O4   11  -0.464   0.252  -0.096
    1UNL     C8   12  -0.751   0.164  -0.079
    1UNL     O5   13  -0.706   0.189  -0.211
    1UNL     C9   14  -0.764   0.013  -0.046
    1UNL     O6   15  -0.845  -0.022   0.058
    1UNL    C10   16  -0.626  -0.056  -0.028
    1UNL     O7   17  -0.651  -0.191   0.003
    1UNL    C11   18   0.015  -0.155   0.046
    1UNL    C12   19   0.156  -0.081   0.061
    1UNL    C13   20   0.146   0.035   0.168
    1UNL    C14   21   0.279   0.051   0.237
    1UNL     O8   22   0.381   0.079   0.141
    1UNL    C15   23   0.458  -0.031   0.123
    1UNL     O9   24   0.446  -0.145   0.170
    1UNL    C16   25   0.552  -0.021   0.007
    1UNL    C17   26   0.630  -0.122  -0.026
    1UNL    C18   27   0.731  -0.125  -0.131
    1UNL    C19   28   0.830  -0.227  -0.146
    1UNL    C20   29   0.931  -0.228  -0.241
    1UNL    C21   30   0.944  -0.116  -0.325
    1UNL    O10   31   1.036  -0.108  -0.424
    1UNL    C22   32   0.847  -0.010  -0.306
    1UNL    O11   33   0.863   0.106  -0.385
    1UNL    C23   34   0.747  -0.009  -0.209
    1UNL    C24   35   0.033   0.014   0.270
    1UNL    C25   36  -0.109   0.006   0.210
    1UNL    O12   37  -0.174   0.136   0.213
    1UNL     H1   38  -0.221   0.052  -0.082
    1UNL     H2   39  -0.221  -0.260   0.073
    1UNL     H3   40  -0.441  -0.176   0.071
    1UNL     H4   41  -0.558  -0.043   0.166
    1UNL     H5   42  -0.733   0.295   0.089
    1UNL     H6   43  -0.619   0.388  -0.108
    1UNL     H7   44  -0.524   0.406   0.030
    1UNL     H8   45  -0.440   0.170  -0.043
    1UNL     H9   46  -0.855   0.208  -0.069
    1UNL    H10   47  -0.610   0.192  -0.218
    1UNL    H11   48  -0.808  -0.034  -0.132
    1UNL    H12   49  -0.809   0.026   0.135
    1UNL    H13   50  -0.560  -0.031  -0.118
    1UNL    H14   51  -0.733  -0.197   0.057
    1UNL    H15   52   0.003  -0.234   0.112
    1UNL    H16   53   0.006  -0.193  -0.055
    1UNL    H17   54   0.203  -0.043  -0.040
    1UNL    H18   55   0.222  -0.163   0.100
    1UNL    H19   56   0.141   0.129   0.107
    1UNL    H20   57   0.302  -0.036   0.294
    1UNL    H21   58   0.276   0.138   0.304
    1UNL    H22   59   0.579   0.075  -0.037
    1UNL    H23   60   0.632  -0.208   0.042
    1UNL    H24   61   0.821  -0.304  -0.085
    1UNL    H25   62   1.017  -0.296  -0.239
    1UNL    H26   63   1.050  -0.019  -0.449
    1UNL    H27   64   0.776   0.152  -0.387
    1UNL    H28   65   0.681   0.071  -0.203
    1UNL    H29   66   0.041   0.101   0.338
    1UNL    H30   67   0.056  -0.085   0.314
    1UNL    H31   68  -0.180  -0.056   0.269
    1UNL    H32   69  -0.251   0.130   0.150
   0.00000   0.00000   0.00000   0.00000   0.00000   0.00000   0.00000   0.00000   0.00000
Generated with MDTraj, t= 38.0
 69
    1UNL     O1    1   0.002   0.046  -0.103
    1UNL     C1    2  -0.101   0.024  -0.045
    1UNL     C2    3  -0.106  -0.077   0.071
    1UNL     C3    4  -0.231  -0.153   0.057
    1UNL     C4    5  -0.358  -0.103   0.048
    1UNL     O2    6  -0.405   0.025   0.072
    1UNL     C5    7  -0.550   0.028   0.090
    1UNL     O3    8  -0.611   0.146   0.139
    1UNL     C6    9  -0.671   0.236   0.037
    1UNL     C7   10  -0.559   0.319  -0.019
    1UNL     O4   11  -0.471   0.247  -0.099
    1UNL     C8   12  -0.753   0.165  -0.075
    1UNL     O5   13  -0.724   0.205  -0.207
    1UNL     C9   14  -0.768   0.015  -0.060
    1UNL     O6   15  -0.841  -0.017   0.053
    1UNL    C10   16  -0.621  -0.042  -0.039
    1UNL     O7   17  -0.627  -0.183  -0.025
    1UNL    C11   18   0.021  -0.171   0.073
    1UNL    C12   19   0.150  -0.092   0.079
    1UNL    C13   20   0.140   0.034   0.167
    1UNL    C14   21   0.269   0.071   0.224
    1UNL     O8   22   0.363   0.083   0.121
    1UNL    C15   23   0.435  -0.032   0.103
    1UNL     O9   24   0.426  -0.138   0.163
    1UNL    C16   25   0.529  -0.022  -0.005
    1UNL    C17   26   0.634  -0.106  -0.014
    1UNL    C18   27   0.739  -0.106  -0.121
    1UNL    C19   28   0.817  -0.222  -0.142
    1UNL    C20   29   0.918  -0.228  -0.233
    1UNL    C21   30   0.937  -0.124  -0.323
    1UNL    O10   31   1.039  -0.122  -0.417
    1UNL    C22   32   0.862  -0.001  -0.311
    1UNL    O11   33   0.887   0.107  -0.397
    1UNL    C23   34   0.763  -0.001  -0.212
    1UNL    C24   35   0.038   0.009   0.276
    1UNL    C25   36  -0.104   0.006   0.213
    1UNL    O12   37  -0.159   0.137   0.197
    1UNL     H1   38  -0.191   0.059  -0.085
    1UNL     H2   39  -0.219  -0.260   0.049
    1UNL     H3   40  -0.432  -0.180   0.008
    1UNL     H4   41  -0.562  -0.044   0.179
    1UNL     H5   42  -0.739   0.301   0.087
    1UNL     H6   43  -0.582   0.409  -0.076
    1UNL     H7   44  -0.509   0.348   0.070
    1UNL     H8   45  -0.457   0.166  -0.046
    1UNL     H9   46  -0.858   0.199  -0.053
    1UNL    H10   47  -0.626   0.243  -0.223
    1UNL    H11   48  -0.820  -0.033  -0.141
    1UNL    H12   49  -0.796   0.031   0.128
    1UNL    H13   50  -0.564  -0.018  -0.133
    1UNL    H14   51  -0.694  -0.203   0.045
    1UNL    H15   52   0.006  -0.237   0.149
    1UNL    H16   53   0.017  -0.232  -0.017
    1UNL    H17   54   0.185  -0.051  -0.028
    1UNL    H18   55   0.235  -0.151   0.121
    1UNL    H19   56   0.105   0.125   0.108
    1UNL    H20   57   0.300  -0.001   0.298
    1UNL    H21   58   0.260   0.170   0.274
    1UNL    H22   59   0.517   0.076  -0.059
    1UNL    H23   60   0.659  -0.168   0.069
    1UNL    H24   61   0.807  -0.309  -0.064
    1UNL    H25   62   0.975  -0.317  -0.245
    1UNL    H26   63   1.023  -0.045  -0.484
    1UNL    H27   64   0.808   0.161  -0.411
    1UNL    H28   65   0.700   0.089  -0.208
    1UNL    H29   66   0.047   0.094   0.346
    1UNL    H30   67   0.060  -0.092   0.316
    1UNL    H31   68  -0.170  -0.041   0.285
    1UNL    H32   69  -0.245   0.129   0.148
   0.00000   0.00000   0.00000   0.00000   0.00000   0.00000   0.00000   0.00000   0.00000
Generated with MDTraj, t= 39.0
 69
    1UNL     O1    1   0.009   0.033  -0.098
    1UNL     C1    2  -0.097   0.016  -0.041
    1UNL     C2    3  -0.116  -0.081   0.072
    1UNL     C3    4  -0.245  -0.164   0.047
    1UNL     C4    5  -0.374  -0.119   0.044
    1UNL     O2    6  -0.419   0.004   0.087
    1UNL     C5    7  -0.561   0.006   0.094
    1UNL     O3    8  -0.611   0.132   0.136
    1UNL     C6    9  -0.644   0.236   0.045
    1UNL     C7   10  -0.509   0.306  -0.008
    1UNL     O4   11  -0.457   0.228  -0.104
    1UNL     C8   12  -0.755   0.183  -0.061
    1UNL     O5   13  -0.729   0.221  -0.199
    1UNL     C9   14  -0.766   0.030  -0.049
    1UNL     O6   15  -0.836  -0.012   0.064
    1UNL    C10   16  -0.622  -0.031  -0.040
    1UNL     O7   17  -0.627  -0.172  -0.058
    1UNL    C11   18   0.011  -0.182   0.077
    1UNL    C12   19   0.142  -0.120   0.117
    1UNL    C13   20   0.136   0.031   0.154
    1UNL    C14   21   0.268   0.086   0.211
    1UNL     O8   22   0.371   0.102   0.118
    1UNL    C15   23   0.448  -0.004   0.087
    1UNL     O9   24   0.423  -0.111   0.139
    1UNL    C16   25   0.560   0.015  -0.001
    1UNL    C17   26   0.627  -0.098  -0.034
    1UNL    C18   27   0.740  -0.107  -0.128
    1UNL    C19   28   0.821  -0.218  -0.138
    1UNL    C20   29   0.922  -0.236  -0.234
    1UNL    C21   30   0.947  -0.126  -0.315
    1UNL    O10   31   1.032  -0.130  -0.423
    1UNL    C22   32   0.872  -0.008  -0.301
    1UNL    O11   33   0.891   0.094  -0.388
    1UNL    C23   34   0.766  -0.001  -0.210
    1UNL    C24   35   0.019   0.057   0.258
    1UNL    C25   36  -0.119   0.002   0.209
    1UNL    O12   37  -0.204   0.112   0.209
    1UNL     H1   38  -0.180   0.080  -0.086
    1UNL     H2   39  -0.229  -0.264   0.007
    1UNL     H3   40  -0.442  -0.190   0.019
    1UNL     H4   41  -0.581  -0.064   0.182
    1UNL     H5   42  -0.700   0.312   0.095
    1UNL     H6   43  -0.548   0.394  -0.063
    1UNL     H7   44  -0.440   0.333   0.066
    1UNL     H8   45  -0.417   0.146  -0.063
    1UNL     H9   46  -0.850   0.232  -0.035
    1UNL    H10   47  -0.635   0.209  -0.208
    1UNL    H11   48  -0.824   0.000  -0.135
    1UNL    H12   49  -0.806   0.038   0.141
    1UNL    H13   50  -0.564   0.016  -0.123
    1UNL    H14   51  -0.691  -0.221  -0.001
    1UNL    H15   52  -0.009  -0.274   0.123
    1UNL    H16   53   0.020  -0.205  -0.028
    1UNL    H17   54   0.218  -0.111   0.026
    1UNL    H18   55   0.192  -0.174   0.201
    1UNL    H19   56   0.098   0.098   0.072
    1UNL    H20   57   0.301   0.010   0.282
    1UNL    H21   58   0.253   0.179   0.273
    1UNL    H22   59   0.591   0.111  -0.014
    1UNL    H23   60   0.601  -0.193   0.015
    1UNL    H24   61   0.793  -0.304  -0.072
    1UNL    H25   62   0.981  -0.328  -0.245
    1UNL    H26   63   1.039  -0.037  -0.447
    1UNL    H27   64   0.826   0.164  -0.386
    1UNL    H28   65   0.686   0.069  -0.231
    1UNL    H29   66  -0.006   0.164   0.265
    1UNL    H30   67   0.050   0.013   0.356
    1UNL    H31   68  -0.148  -0.066   0.288
    1UNL    H32   69  -0.287   0.082   0.163
   0.00000   0.00000   0.00000   0.00000   0.00000   0.00000   0.00000   0.00000   0.00000
Generated with MDTraj, t= 40.0
 69
    1UNL     O1    1  -0.016   0.041  -0.103
    1UNL     C1    2  -0.110   0.013  -0.038
    1UNL     C2    3  -0.114  -0.081   0.085
    1UNL     C3    4  -0.229  -0.179   0.077
    1UNL     C4    5  -0.358  -0.147   0.059
    1UNL     O2    6  -0.410  -0.019   0.043
    1UNL     C5    7  -0.554  -0.006   0.067
    1UNL     O3    8  -0.597   0.114   0.140
    1UNL     C6    9  -0.620   0.232   0.063
    1UNL     C7   10  -0.492   0.289  -0.009
    1UNL     O4   11  -0.452   0.209  -0.114
    1UNL     C8   12  -0.737   0.202  -0.040
    1UNL     O5   13  -0.706   0.252  -0.173
    1UNL     C9   14  -0.769   0.049  -0.058
    1UNL     O6   15  -0.851  -0.001   0.048
    1UNL    C10   16  -0.638  -0.040  -0.059
    1UNL     O7   17  -0.686  -0.176  -0.050
    1UNL    C11   18   0.013  -0.174   0.069
    1UNL    C12   19   0.140  -0.109   0.125
    1UNL    C13   20   0.135   0.043   0.150
    1UNL    C14   21   0.269   0.104   0.205
    1UNL     O8   22   0.366   0.109   0.109
    1UNL    C15   23   0.439  -0.002   0.089
    1UNL     O9   24   0.428  -0.102   0.160
    1UNL    C16   25   0.541   0.007  -0.016
    1UNL    C17   26   0.630  -0.087  -0.028
    1UNL    C18   27   0.730  -0.099  -0.132
    1UNL    C19   28   0.802  -0.219  -0.142
    1UNL    C20   29   0.907  -0.234  -0.236
    1UNL    C21   30   0.941  -0.135  -0.324
    1UNL    O10   31   1.056  -0.129  -0.405
    1UNL    C22   32   0.877  -0.006  -0.308
    1UNL    O11   33   0.913   0.092  -0.393
    1UNL    C23   34   0.774   0.002  -0.215
    1UNL    C24   35   0.020   0.076   0.253
    1UNL    C25   36  -0.115   0.000   0.217
    1UNL    O12   37  -0.215   0.093   0.219
    1UNL     H1   38  -0.202   0.053  -0.064
    1UNL     H2   39  -0.205  -0.284   0.076
    1UNL     H3   40  -0.434  -0.228   0.044
    1UNL     H4   41  -0.568  -0.093   0.140
    1UNL     H5   42  -0.659   0.299   0.143
    1UNL     H6   43  -0.509   0.392  -0.052
    1UNL     H7   44  -0.420   0.287   0.067
    1UNL     H8   45  -0.418   0.132  -0.062
    1UNL     H9   46  -0.824   0.256  -0.008
    1UNL    H10   47  -0.618   0.228  -0.206
    1UNL    H11   48  -0.828   0.037  -0.149
    1UNL    H12   49  -0.807   0.013   0.136
    1UNL    H13   50  -0.591  -0.033  -0.157
    1UNL    H14   51  -0.762  -0.193   0.010
    1UNL    H15   52   0.003  -0.269   0.118
    1UNL    H16   53   0.020  -0.195  -0.034
    1UNL    H17   54   0.219  -0.121   0.042
    1UNL    H18   55   0.177  -0.156   0.221
    1UNL    H19   56   0.116   0.101   0.055
    1UNL    H20   57   0.302   0.053   0.296
    1UNL    H21   58   0.257   0.213   0.235
    1UNL    H22   59   0.551   0.088  -0.095
    1UNL    H23   60   0.619  -0.170   0.037
    1UNL    H24   61   0.776  -0.300  -0.091
    1UNL    H25   62   0.962  -0.325  -0.232
    1UNL    H26   63   1.053  -0.053  -0.467
    1UNL    H27   64   0.840   0.155  -0.396
    1UNL    H28   65   0.727   0.096  -0.212
    1UNL    H29   66   0.005   0.184   0.254
    1UNL    H30   67   0.045   0.037   0.355
    1UNL    H31   68  -0.125  -0.075   0.296
    1UNL    H32   69  -0.287   0.065   0.160
   0.00000   0.00000   0.00000   0.00000   0.00000   0.00000   0.00000   0.00000   0.00000
Generated with MDTraj, t= 41.0
 69
    1UNL     O1    1  -0.057   0.078  -0.085
    1UNL     C1    2  -0.132   0.003  -0.032
    1UNL     C2    3  -0.119  -0.089   0.083
    1UNL     C3    4  -0.232  -0.188   0.084
    1UNL     C4    5  -0.359  -0.165   0.057
    1UNL     O2    6  -0.408  -0.044   0.017
    1UNL     C5    7  -0.551  -0.021   0.056
    1UNL     O3    8  -0.566   0.105   0.133
    1UNL     C6    9  -0.601   0.227   0.067
    1UNL     C7   10  -0.475   0.282  -0.003
    1UNL     O4   11  -0.433   0.196  -0.110
    1UNL     C8   12  -0.723   0.209  -0.034
    1UNL     O5   13  -0.684   0.264  -0.160
    1UNL     C9   14  -0.762   0.059  -0.050
    1UNL     O6   15  -0.854   0.022   0.055
    1UNL    C10   16  -0.641  -0.043  -0.063
    1UNL     O7   17  -0.695  -0.172  -0.052
    1UNL    C11   18   0.017  -0.169   0.065
    1UNL    C12   19   0.141  -0.106   0.135
    1UNL    C13   20   0.128   0.043   0.139
    1UNL    C14   21   0.253   0.117   0.175
    1UNL     O8   22   0.350   0.121   0.075
    1UNL    C15   23   0.442   0.014   0.080
    1UNL     O9   24   0.444  -0.064   0.177
    1UNL    C16   25   0.543   0.014  -0.024
    1UNL    C17   26   0.615  -0.097  -0.042
    1UNL    C18   27   0.729  -0.113  -0.139
    1UNL    C19   28   0.809  -0.225  -0.140
    1UNL    C20   29   0.914  -0.236  -0.231
    1UNL    C21   30   0.943  -0.132  -0.314
    1UNL    O10   31   1.047  -0.134  -0.404
    1UNL    C22   32   0.870  -0.011  -0.301
    1UNL    O11   33   0.920   0.095  -0.374
    1UNL    C23   34   0.764  -0.002  -0.212
    1UNL    C24   35   0.017   0.074   0.244
    1UNL    C25   36  -0.114  -0.012   0.213
    1UNL    O12   37  -0.226   0.069   0.232
    1UNL     H1   38  -0.233   0.015  -0.080
    1UNL     H2   39  -0.213  -0.282   0.131
    1UNL     H3   40  -0.441  -0.245   0.053
    1UNL     H4   41  -0.565  -0.108   0.132
    1UNL     H5   42  -0.636   0.290   0.157
    1UNL     H6   43  -0.510   0.384  -0.044
    1UNL     H7   44  -0.393   0.286   0.062
    1UNL     H8   45  -0.417   0.111  -0.061
    1UNL     H9   46  -0.809   0.260   0.001
    1UNL    H10   47  -0.587   0.233  -0.190
    1UNL    H11   48  -0.820   0.045  -0.144
    1UNL    H12   49  -0.810   0.039   0.142
    1UNL    H13   50  -0.594  -0.027  -0.157
    1UNL    H14   51  -0.756  -0.173   0.026
    1UNL    H15   52   0.002  -0.266   0.114
    1UNL    H16   53   0.037  -0.185  -0.033
    1UNL    H17   54   0.234  -0.135   0.084
    1UNL    H18   55   0.147  -0.141   0.245
    1UNL    H19   56   0.110   0.073   0.031
    1UNL    H20   57   0.301   0.082   0.267
    1UNL    H21   58   0.231   0.226   0.199
    1UNL    H22   59   0.539   0.093  -0.098
    1UNL    H23   60   0.585  -0.182   0.020
    1UNL    H24   61   0.768  -0.321  -0.087
    1UNL    H25   62   0.978  -0.324  -0.231
    1UNL    H26   63   1.073  -0.036  -0.417
    1UNL    H27   64   0.862   0.175  -0.368
    1UNL    H28   65   0.696   0.088  -0.212
    1UNL    H29   66  -0.017   0.177   0.226
    1UNL    H30   67   0.053   0.045   0.346
    1UNL    H31   68  -0.126  -0.084   0.296
    1UNL    H32   69  -0.303   0.040   0.173
   0.00000   0.00000   0.00000   0.00000   0.00000   0.00000   0.00000   0.00000   0.00000
Generated with MDTraj, t= 42.0
 69
    1UNL     O1    1  -0.106   0.105  -0.055
    1UNL     C1    2  -0.144  -0.011  -0.043
    1UNL     C2    3  -0.122  -0.105   0.065
    1UNL     C3    4  -0.237  -0.204   0.077
    1UNL     C4    5  -0.365  -0.174   0.060
    1UNL     O2    6  -0.408  -0.047   0.031
    1UNL     C5    7  -0.552  -0.024   0.075
    1UNL     O3    8  -0.561   0.101   0.147
    1UNL     C6    9  -0.577   0.218   0.068
    1UNL     C7   10  -0.442   0.267   0.006
    1UNL     O4   11  -0.405   0.201  -0.118
    1UNL     C8   12  -0.703   0.208  -0.039
    1UNL     O5   13  -0.673   0.267  -0.164
    1UNL     C9   14  -0.758   0.061  -0.037
    1UNL     O6   15  -0.829   0.036   0.085
    1UNL    C10   16  -0.639  -0.038  -0.050
    1UNL     O7   17  -0.672  -0.172  -0.074
    1UNL    C11   18   0.020  -0.173   0.056
    1UNL    C12   19   0.134  -0.091   0.120
    1UNL    C13   20   0.115   0.059   0.114
    1UNL    C14   21   0.240   0.131   0.157
    1UNL     O8   22   0.348   0.127   0.062
    1UNL    C15   23   0.430   0.020   0.078
    1UNL     O9   24   0.427  -0.068   0.164
    1UNL    C16   25   0.535   0.009  -0.023
    1UNL    C17   26   0.626  -0.092  -0.024
    1UNL    C18   27   0.735  -0.099  -0.120
    1UNL    C19   28   0.791  -0.226  -0.139
    1UNL    C20   29   0.890  -0.246  -0.231
    1UNL    C21   30   0.940  -0.135  -0.305
    1UNL    O10   31   1.055  -0.137  -0.385
    1UNL    C22   32   0.878  -0.009  -0.295
    1UNL    O11   33   0.916   0.093  -0.383
    1UNL    C23   34   0.772   0.008  -0.204
    1UNL    C24   35  -0.013   0.099   0.197
    1UNL    C25   36  -0.115  -0.022   0.205
    1UNL    O12   37  -0.237   0.033   0.246
    1UNL     H1   38  -0.223  -0.044  -0.112
    1UNL     H2   39  -0.215  -0.306   0.108
    1UNL     H3   40  -0.439  -0.237   0.091
    1UNL     H4   41  -0.578  -0.115   0.140
    1UNL     H5   42  -0.610   0.294   0.149
    1UNL     H6   43  -0.458   0.376  -0.030
    1UNL     H7   44  -0.366   0.261   0.078
    1UNL     H8   45  -0.392   0.109  -0.080
    1UNL     H9   46  -0.780   0.272  -0.005
    1UNL    H10   47  -0.589   0.232  -0.189
    1UNL    H11   48  -0.824   0.036  -0.125
    1UNL    H12   49  -0.771   0.069   0.156
    1UNL    H13   50  -0.582  -0.022  -0.139
    1UNL    H14   51  -0.756  -0.201  -0.033
    1UNL    H15   52   0.017  -0.269   0.108
    1UNL    H16   53   0.039  -0.202  -0.041
    1UNL    H17   54   0.228  -0.120   0.076
    1UNL    H18   55   0.150  -0.119   0.232
    1UNL    H19   56   0.108   0.080   0.004
    1UNL    H20   57   0.284   0.096   0.251
    1UNL    H21   58   0.213   0.236   0.185
    1UNL    H22   59   0.528   0.076  -0.100
    1UNL    H23   60   0.634  -0.174   0.043
    1UNL    H24   61   0.764  -0.316  -0.078
    1UNL    H25   62   0.917  -0.345  -0.265
    1UNL    H26   63   1.049  -0.069  -0.450
    1UNL    H27   64   0.858   0.174  -0.368
    1UNL    H28   65   0.724   0.099  -0.210
    1UNL    H29   66  -0.063   0.180   0.140
    1UNL    H30   67   0.018   0.117   0.303
    1UNL    H31   68  -0.088  -0.088   0.292
    1UNL    H32   69  -0.303   0.029   0.173
   0.00000   0.00000   0.00000   0.00000   0.00000   0.00000   0.00000   0.00000   0.00000
Generated with MDTraj, t= 43.0
 69
    1UNL     O1    1  -0.163   0.099  -0.041
    1UNL     C1    2  -0.150  -0.017  -0.056
    1UNL     C2    3  -0.117  -0.111   0.060
    1UNL     C3    4  -0.229  -0.213   0.069
    1UNL     C4    5  -0.360  -0.176   0.070
    1UNL     O2    6  -0.397  -0.046   0.032
    1UNL     C5    7  -0.536  -0.019   0.080
    1UNL     O3    8  -0.551   0.103   0.154
    1UNL     C6    9  -0.571   0.222   0.074
    1UNL     C7   10  -0.447   0.269  -0.003
    1UNL     O4   11  -0.417   0.179  -0.106
    1UNL     C8   12  -0.690   0.217  -0.031
    1UNL     O5   13  -0.656   0.268  -0.157
    1UNL     C9   14  -0.744   0.068  -0.039
    1UNL     O6   15  -0.814   0.029   0.080
    1UNL    C10   16  -0.631  -0.037  -0.044
    1UNL     O7   17  -0.678  -0.162  -0.062
    1UNL    C11   18   0.021  -0.173   0.037
    1UNL    C12   19   0.138  -0.089   0.090
    1UNL    C13   20   0.116   0.064   0.096
    1UNL    C14   21   0.234   0.142   0.155
    1UNL     O8   22   0.341   0.141   0.058
    1UNL    C15   23   0.423   0.030   0.073
    1UNL     O9   24   0.405  -0.072   0.140
    1UNL    C16   25   0.530   0.023  -0.021
    1UNL    C17   26   0.610  -0.082  -0.034
    1UNL    C18   27   0.732  -0.097  -0.114
    1UNL    C19   28   0.805  -0.220  -0.114
    1UNL    C20   29   0.903  -0.239  -0.210
    1UNL    C21   30   0.936  -0.137  -0.298
    1UNL    O10   31   1.023  -0.160  -0.397
    1UNL    C22   32   0.872  -0.009  -0.287
    1UNL    O11   33   0.930   0.090  -0.367
    1UNL    C23   34   0.771   0.008  -0.195
    1UNL    C24   35  -0.010   0.092   0.187
    1UNL    C25   36  -0.109  -0.031   0.199
    1UNL    O12   37  -0.228   0.019   0.247
    1UNL     H1   38  -0.193  -0.055  -0.143
    1UNL     H2   39  -0.200  -0.315   0.062
    1UNL     H3   40  -0.440  -0.250   0.073
    1UNL     H4   41  -0.552  -0.109   0.150
    1UNL     H5   42  -0.595   0.313   0.138
    1UNL     H6   43  -0.451   0.382  -0.038
    1UNL     H7   44  -0.370   0.261   0.070
    1UNL     H8   45  -0.346   0.117  -0.080
    1UNL     H9   46  -0.770   0.284   0.000
    1UNL    H10   47  -0.574   0.231  -0.180
    1UNL    H11   48  -0.818   0.064  -0.124
    1UNL    H12   49  -0.749   0.031   0.155
    1UNL    H13   50  -0.567  -0.014  -0.124
    1UNL    H14   51  -0.771  -0.158  -0.027
    1UNL    H15   52   0.017  -0.280   0.054
    1UNL    H16   53   0.034  -0.171  -0.071
    1UNL    H17   54   0.227  -0.112   0.036
    1UNL    H18   55   0.165  -0.126   0.195
    1UNL    H19   56   0.093   0.089  -0.011
    1UNL    H20   57   0.262   0.096   0.248
    1UNL    H21   58   0.209   0.244   0.187
    1UNL    H22   59   0.554   0.126  -0.061
    1UNL    H23   60   0.591  -0.171   0.026
    1UNL    H24   61   0.774  -0.284  -0.047
    1UNL    H25   62   0.954  -0.333  -0.219
    1UNL    H26   63   1.072  -0.075  -0.430
    1UNL    H27   64   0.890   0.179  -0.339
    1UNL    H28   65   0.719   0.104  -0.190
    1UNL    H29   66  -0.065   0.170   0.133
    1UNL    H30   67   0.025   0.118   0.290
    1UNL    H31   68  -0.064  -0.099   0.277
    1UNL    H32   69  -0.283   0.037   0.170
   0.00000   0.00000   0.00000   0.00000   0.00000   0.00000   0.00000   0.00000   0.00000
Generated with MDTraj, t= 44.0
 69
    1UNL     O1    1  -0.158   0.109  -0.035
    1UNL     C1    2  -0.142  -0.005  -0.062
    1UNL     C2    3  -0.115  -0.108   0.057
    1UNL     C3    4  -0.238  -0.207   0.056
    1UNL     C4    5  -0.366  -0.165   0.038
    1UNL     O2    6  -0.400  -0.030   0.038
    1UNL     C5    7  -0.537  -0.011   0.080
    1UNL     O3    8  -0.553   0.108   0.148
    1UNL     C6    9  -0.570   0.222   0.075
    1UNL     C7   10  -0.440   0.256  -0.004
    1UNL     O4   11  -0.427   0.177  -0.115
    1UNL     C8   12  -0.701   0.215  -0.016
    1UNL     O5   13  -0.675   0.272  -0.139
    1UNL     C9   14  -0.747   0.065  -0.033
    1UNL     O6   15  -0.837   0.021   0.070
    1UNL    C10   16  -0.636  -0.036  -0.042
    1UNL     O7   17  -0.685  -0.163  -0.046
    1UNL    C11   18   0.019  -0.178   0.023
    1UNL    C12   19   0.144  -0.094   0.068
    1UNL    C13   20   0.106   0.055   0.094
    1UNL    C14   21   0.230   0.140   0.139
    1UNL     O8   22   0.334   0.142   0.038
    1UNL    C15   23   0.430   0.043   0.067
    1UNL     O9   24   0.410  -0.044   0.153
    1UNL    C16   25   0.542   0.033  -0.017
    1UNL    C17   26   0.628  -0.066  -0.014
    1UNL    C18   27   0.743  -0.096  -0.103
    1UNL    C19   28   0.792  -0.219  -0.120
    1UNL    C20   29   0.887  -0.247  -0.214
    1UNL    C21   30   0.939  -0.146  -0.298
    1UNL    O10   31   1.056  -0.159  -0.376
    1UNL    C22   32   0.879  -0.021  -0.292
    1UNL    O11   33   0.923   0.079  -0.375
    1UNL    C23   34   0.787   0.002  -0.196
    1UNL    C24   35   0.002   0.071   0.205
    1UNL    C25   36  -0.103  -0.045   0.203
    1UNL    O12   37  -0.218   0.003   0.269
    1UNL     H1   38  -0.164  -0.046  -0.166
    1UNL     H2   39  -0.214  -0.310   0.083
    1UNL     H3   40  -0.452  -0.242   0.027
    1UNL     H4   41  -0.560  -0.106   0.142
    1UNL     H5   42  -0.580   0.309   0.141
    1UNL     H6   43  -0.461   0.364  -0.052
    1UNL     H7   44  -0.358   0.275   0.067
    1UNL     H8   45  -0.334   0.145  -0.113
    1UNL     H9   46  -0.784   0.272   0.032
    1UNL    H10   47  -0.587   0.233  -0.182
    1UNL    H11   48  -0.815   0.059  -0.122
    1UNL    H12   49  -0.793   0.026   0.156
    1UNL    H13   50  -0.590  -0.033  -0.138
    1UNL    H14   51  -0.784  -0.159  -0.051
    1UNL    H15   52   0.023  -0.276   0.061
    1UNL    H16   53   0.015  -0.186  -0.089
    1UNL    H17   54   0.209  -0.097  -0.019
    1UNL    H18   55   0.204  -0.136   0.151
    1UNL    H19   56   0.061   0.089  -0.002
    1UNL    H20   57   0.271   0.095   0.228
    1UNL    H21   58   0.201   0.240   0.171
    1UNL    H22   59   0.564   0.113  -0.083
    1UNL    H23   60   0.616  -0.135   0.067
    1UNL    H24   61   0.764  -0.304  -0.046
    1UNL    H25   62   0.940  -0.343  -0.210
    1UNL    H26   63   1.061  -0.081  -0.430
    1UNL    H27   64   0.872   0.164  -0.361
    1UNL    H28   65   0.772   0.106  -0.161
    1UNL    H29   66  -0.060   0.162   0.190
    1UNL    H30   67   0.056   0.073   0.302
    1UNL    H31   68  -0.058  -0.127   0.262
    1UNL    H32   69  -0.286   0.020   0.196
   0.00000   0.00000   0.00000   0.00000   0.00000   0.00000   0.00000   0.00000   0.00000
Generated with MDTraj, t= 45.0
 69
    1UNL     O1    1  -0.149   0.127  -0.014
    1UNL     C1    2  -0.140   0.011  -0.048
    1UNL     C2    3  -0.116  -0.107   0.046
    1UNL     C3    4  -0.233  -0.209   0.032
    1UNL     C4    5  -0.362  -0.167   0.039
    1UNL     O2    6  -0.404  -0.033   0.054
    1UNL     C5    7  -0.549  -0.014   0.085
    1UNL     O3    8  -0.578   0.108   0.154
    1UNL     C6    9  -0.599   0.226   0.074
    1UNL     C7   10  -0.469   0.277   0.013
    1UNL     O4   11  -0.425   0.203  -0.100
    1UNL     C8   12  -0.715   0.209  -0.025
    1UNL     O5   13  -0.696   0.265  -0.152
    1UNL     C9   14  -0.757   0.061  -0.031
    1UNL     O6   15  -0.837   0.033   0.087
    1UNL    C10   16  -0.636  -0.039  -0.047
    1UNL     O7   17  -0.666  -0.181  -0.058
    1UNL    C11   18   0.020  -0.170   0.005
    1UNL    C12   19   0.142  -0.091   0.070
    1UNL    C13   20   0.107   0.056   0.094
    1UNL    C14   21   0.234   0.134   0.144
    1UNL     O8   22   0.324   0.126   0.035
    1UNL    C15   23   0.426   0.041   0.062
    1UNL     O9   24   0.442  -0.007   0.175
    1UNL    C16   25   0.529   0.021  -0.046
    1UNL    C17   26   0.623  -0.073  -0.036
    1UNL    C18   27   0.743  -0.096  -0.115
    1UNL    C19   28   0.815  -0.215  -0.104
    1UNL    C20   29   0.914  -0.245  -0.201
    1UNL    C21   30   0.963  -0.148  -0.285
    1UNL    O10   31   1.055  -0.178  -0.383
    1UNL    C22   32   0.894  -0.025  -0.290
    1UNL    O11   33   0.942   0.068  -0.371
    1UNL    C23   34   0.783  -0.004  -0.214
    1UNL    C24   35   0.002   0.067   0.205
    1UNL    C25   36  -0.101  -0.053   0.193
    1UNL    O12   37  -0.228  -0.014   0.253
    1UNL     H1   38  -0.134  -0.001  -0.155
    1UNL     H2   39  -0.206  -0.312   0.027
    1UNL     H3   40  -0.435  -0.237   0.047
    1UNL     H4   41  -0.556  -0.098   0.166
    1UNL     H5   42  -0.626   0.308   0.138
    1UNL     H6   43  -0.477   0.396  -0.010
    1UNL     H7   44  -0.387   0.273   0.089
    1UNL     H8   45  -0.356   0.138  -0.069
    1UNL     H9   46  -0.798   0.269   0.028
    1UNL    H10   47  -0.603   0.249  -0.181
    1UNL    H11   48  -0.818   0.054  -0.121
    1UNL    H12   49  -0.771   0.048   0.158
    1UNL    H13   50  -0.573  -0.013  -0.129
    1UNL    H14   51  -0.758  -0.188  -0.023
    1UNL    H15   52   0.020  -0.273   0.027
    1UNL    H16   53   0.020  -0.163  -0.111
    1UNL    H17   54   0.238  -0.092   0.013
    1UNL    H18   55   0.170  -0.129   0.164
    1UNL    H19   56   0.076   0.103  -0.001
    1UNL    H20   57   0.277   0.108   0.241
    1UNL    H21   58   0.211   0.241   0.149
    1UNL    H22   59   0.537   0.093  -0.123
    1UNL    H23   60   0.622  -0.138   0.051
    1UNL    H24   61   0.794  -0.288  -0.022
    1UNL    H25   62   0.963  -0.339  -0.208
    1UNL    H26   63   1.085  -0.091  -0.425
    1UNL    H27   64   0.901   0.154  -0.347
    1UNL    H28   65   0.732   0.086  -0.212
    1UNL    H29   66  -0.057   0.157   0.183
    1UNL    H30   67   0.035   0.068   0.312
    1UNL    H31   68  -0.069  -0.142   0.249
    1UNL    H32   69  -0.297  -0.015   0.183
   0.00000   0.00000   0.00000   0.00000   0.00000   0.00000   0.00000   0.00000   0.00000
Generated with MDTraj, t= 46.0
 69
    1UNL     O1    1  -0.168   0.139  -0.001
    1UNL     C1    2  -0.153   0.028  -0.037
    1UNL     C2    3  -0.128  -0.092   0.044
    1UNL     C3    4  -0.241  -0.193   0.032
    1UNL     C4    5  -0.366  -0.145   0.031
    1UNL     O2    6  -0.415  -0.014   0.040
    1UNL     C5    7  -0.548  -0.008   0.075
    1UNL     O3    8  -0.583   0.108   0.151
    1UNL     C6    9  -0.625   0.227   0.085
    1UNL     C7   10  -0.502   0.301   0.041
    1UNL     O4   11  -0.436   0.228  -0.062
    1UNL     C8   12  -0.731   0.192  -0.030
    1UNL     O5   13  -0.685   0.237  -0.159
    1UNL     C9   14  -0.760   0.040  -0.032
    1UNL     O6   15  -0.835   0.004   0.084
    1UNL    C10   16  -0.631  -0.034  -0.049
    1UNL     O7   17  -0.649  -0.182  -0.056
    1UNL    C11   18   0.005  -0.156  -0.005
    1UNL    C12   19   0.134  -0.093   0.053
    1UNL    C13   20   0.107   0.051   0.093
    1UNL    C14   21   0.241   0.119   0.129
    1UNL     O8   22   0.338   0.115   0.026
    1UNL    C15   23   0.444   0.033   0.060
    1UNL     O9   24   0.447  -0.032   0.166
    1UNL    C16   25   0.555   0.033  -0.043
    1UNL    C17   26   0.645  -0.065  -0.023
    1UNL    C18   27   0.750  -0.092  -0.116
    1UNL    C19   28   0.812  -0.219  -0.106
    1UNL    C20   29   0.917  -0.243  -0.192
    1UNL    C21   30   0.971  -0.157  -0.286
    1UNL    O10   31   1.089  -0.175  -0.353
    1UNL    C22   32   0.897  -0.036  -0.300
    1UNL    O11   33   0.934   0.051  -0.399
    1UNL    C23   34   0.792  -0.005  -0.212
    1UNL    C24   35   0.003   0.068   0.207
    1UNL    C25   36  -0.101  -0.048   0.197
    1UNL    O12   37  -0.224  -0.001   0.256
    1UNL     H1   38  -0.152   0.012  -0.142
    1UNL     H2   39  -0.216  -0.297   0.012
    1UNL     H3   40  -0.445  -0.215   0.007
    1UNL     H4   41  -0.563  -0.103   0.142
    1UNL     H5   42  -0.671   0.280   0.166
    1UNL     H6   43  -0.515   0.412  -0.007
    1UNL     H7   44  -0.437   0.310   0.132
    1UNL     H8   45  -0.343   0.202  -0.042
    1UNL     H9   46  -0.830   0.240   0.008
    1UNL    H10   47  -0.595   0.219  -0.165
    1UNL    H11   48  -0.824   0.017  -0.116
    1UNL    H12   49  -0.772   0.021   0.158
    1UNL    H13   50  -0.587  -0.006  -0.146
    1UNL    H14   51  -0.741  -0.212  -0.036
    1UNL    H15   52  -0.005  -0.254   0.037
    1UNL    H16   53   0.011  -0.169  -0.120
    1UNL    H17   54   0.221  -0.092  -0.016
    1UNL    H18   55   0.174  -0.131   0.141
    1UNL    H19   56   0.073   0.110   0.008
    1UNL    H20   57   0.296   0.076   0.215
    1UNL    H21   58   0.226   0.225   0.157
    1UNL    H22   59   0.555   0.113  -0.124
    1UNL    H23   60   0.616  -0.149   0.038
    1UNL    H24   61   0.791  -0.280  -0.031
    1UNL    H25   62   0.955  -0.345  -0.194
    1UNL    H26   63   1.101  -0.097  -0.411
    1UNL    H27   64   0.882   0.131  -0.407
    1UNL    H28   65   0.750   0.096  -0.229
    1UNL    H29   66  -0.062   0.158   0.205
    1UNL    H30   67   0.057   0.071   0.305
    1UNL    H31   68  -0.070  -0.130   0.262
    1UNL    H32   69  -0.288   0.009   0.185
   0.00000   0.00000   0.00000   0.00000   0.00000   0.00000   0.00000   0.00000   0.00000
Generated with MDTraj, t= 47.0
 69
    1UNL     O1    1  -0.182   0.158   0.005
    1UNL     C1    2  -0.156   0.051  -0.038
    1UNL     C2    3  -0.127  -0.076   0.036
    1UNL     C3    4  -0.243  -0.174   0.023
    1UNL     C4    5  -0.370  -0.137   0.029
    1UNL     O2    6  -0.419  -0.011   0.060
    1UNL     C5    7  -0.558  -0.014   0.082
    1UNL     O3    8  -0.604   0.106   0.159
    1UNL     C6    9  -0.648   0.224   0.091
    1UNL     C7   10  -0.528   0.304   0.054
    1UNL     O4   11  -0.451   0.254  -0.057
    1UNL     C8   12  -0.746   0.183  -0.030
    1UNL     O5   13  -0.692   0.231  -0.158
    1UNL     C9   14  -0.773   0.027  -0.049
    1UNL     O6   15  -0.859  -0.024   0.056
    1UNL    C10   16  -0.639  -0.045  -0.050
    1UNL     O7   17  -0.674  -0.187  -0.041
    1UNL    C11   18   0.013  -0.135  -0.013
    1UNL    C12   19   0.147  -0.082   0.038
    1UNL    C13   20   0.129   0.063   0.092
    1UNL    C14   21   0.259   0.135   0.140
    1UNL     O8   22   0.364   0.138   0.045
    1UNL    C15   23   0.441   0.023   0.052
    1UNL     O9   24   0.427  -0.060   0.141
    1UNL    C16   25   0.551   0.007  -0.044
    1UNL    C17   26   0.649  -0.088  -0.034
    1UNL    C18   27   0.765  -0.110  -0.119
    1UNL    C19   28   0.855  -0.210  -0.086
    1UNL    C20   29   0.961  -0.236  -0.169
    1UNL    C21   30   0.982  -0.158  -0.283
    1UNL    O10   31   1.087  -0.184  -0.367
    1UNL    C22   32   0.903  -0.045  -0.307
    1UNL    O11   33   0.943   0.046  -0.405
    1UNL    C23   34   0.790  -0.018  -0.219
    1UNL    C24   35   0.030   0.056   0.213
    1UNL    C25   36  -0.093  -0.040   0.188
    1UNL    O12   37  -0.207   0.004   0.265
    1UNL     H1   38  -0.157   0.043  -0.151
    1UNL     H2   39  -0.222  -0.277   0.002
    1UNL     H3   40  -0.453  -0.212   0.000
    1UNL     H4   41  -0.565  -0.102   0.159
    1UNL     H5   42  -0.716   0.281   0.159
    1UNL     H6   43  -0.577   0.407   0.014
    1UNL     H7   44  -0.456   0.326   0.133
    1UNL     H8   45  -0.362   0.222  -0.032
    1UNL     H9   46  -0.851   0.231  -0.023
    1UNL    H10   47  -0.591   0.236  -0.169
    1UNL    H11   48  -0.828   0.024  -0.143
    1UNL    H12   49  -0.825   0.004   0.144
    1UNL    H13   50  -0.584  -0.006  -0.140
    1UNL    H14   51  -0.771  -0.193  -0.023
    1UNL    H15   52   0.012  -0.244   0.006
    1UNL    H16   53   0.014  -0.125  -0.126
    1UNL    H17   54   0.238  -0.083  -0.026
    1UNL    H18   55   0.171  -0.136   0.123
    1UNL    H19   56   0.086   0.132   0.019
    1UNL    H20   57   0.304   0.094   0.234
    1UNL    H21   58   0.241   0.244   0.159
    1UNL    H22   59   0.545   0.069  -0.125
    1UNL    H23   60   0.625  -0.168   0.034
    1UNL    H24   61   0.846  -0.284   0.002
    1UNL    H25   62   1.028  -0.317  -0.149
    1UNL    H26   63   1.087  -0.106  -0.426
    1UNL    H27   64   0.882   0.120  -0.397
    1UNL    H28   65   0.731   0.070  -0.233
    1UNL    H29   66  -0.007   0.156   0.238
    1UNL    H30   67   0.078   0.032   0.313
    1UNL    H31   68  -0.059  -0.128   0.242
    1UNL    H32   69  -0.286   0.017   0.203
   0.00000   0.00000   0.00000   0.00000   0.00000   0.00000   0.00000   0.00000   0.00000
Generated with MDTraj, t= 48.0
 69
    1UNL     O1    1  -0.201   0.180   0.049
    1UNL     C1    2  -0.148   0.097  -0.020
    1UNL     C2    3  -0.121  -0.044   0.030
    1UNL     C3    4  -0.234  -0.140   0.012
    1UNL     C4    5  -0.363  -0.118   0.034
    1UNL     O2    6  -0.422   0.000   0.076
    1UNL     C5    7  -0.559  -0.014   0.090
    1UNL     O3    8  -0.633   0.088   0.161
    1UNL     C6    9  -0.664   0.213   0.089
    1UNL     C7   10  -0.539   0.288   0.054
    1UNL     O4   11  -0.463   0.219  -0.056
    1UNL     C8   12  -0.754   0.174  -0.039
    1UNL     O5   13  -0.704   0.238  -0.159
    1UNL     C9   14  -0.773   0.024  -0.054
    1UNL     O6   15  -0.852  -0.029   0.049
    1UNL    C10   16  -0.639  -0.048  -0.037
    1UNL     O7   17  -0.658  -0.196  -0.040
    1UNL    C11   18   0.006  -0.105  -0.043
    1UNL    C12   19   0.136  -0.064   0.031
    1UNL    C13   20   0.137   0.082   0.092
    1UNL    C14   21   0.276   0.122   0.148
    1UNL     O8   22   0.378   0.116   0.042
    1UNL    C15   23   0.438  -0.007   0.040
    1UNL     O9   24   0.414  -0.112   0.100
    1UNL    C16   25   0.563  -0.004  -0.027
    1UNL    C17   26   0.654  -0.100  -0.026
    1UNL    C18   27   0.777  -0.104  -0.103
    1UNL    C19   28   0.861  -0.213  -0.080
    1UNL    C20   29   0.968  -0.236  -0.168
    1UNL    C21   30   0.992  -0.153  -0.269
    1UNL    O10   31   1.105  -0.166  -0.350
    1UNL    C22   32   0.901  -0.046  -0.303
    1UNL    O11   33   0.923   0.020  -0.428
    1UNL    C23   34   0.792  -0.027  -0.222
    1UNL    C24   35   0.025   0.087   0.192
    1UNL    C25   36  -0.084  -0.025   0.182
    1UNL    O12   37  -0.199   0.015   0.260
    1UNL     H1   38  -0.150   0.123  -0.122
    1UNL     H2   39  -0.212  -0.244  -0.006
    1UNL     H3   40  -0.425  -0.201   0.039
    1UNL     H4   41  -0.568  -0.108   0.159
    1UNL     H5   42  -0.734   0.269   0.161
    1UNL     H6   43  -0.533   0.403   0.023
    1UNL     H7   44  -0.481   0.271   0.141
    1UNL     H8   45  -0.375   0.191  -0.023
    1UNL     H9   46  -0.853   0.224  -0.019
    1UNL    H10   47  -0.601   0.216  -0.155
    1UNL    H11   48  -0.811  -0.010  -0.151
    1UNL    H12   49  -0.816  -0.025   0.141
    1UNL    H13   50  -0.577  -0.037  -0.132
    1UNL    H14   51  -0.748  -0.222  -0.008
    1UNL    H15   52   0.014  -0.222  -0.037
    1UNL    H16   53   0.006  -0.075  -0.150
    1UNL    H17   54   0.213  -0.070  -0.047
    1UNL    H18   55   0.162  -0.134   0.106
    1UNL    H19   56   0.103   0.149   0.014
    1UNL    H20   57   0.299   0.044   0.224
    1UNL    H21   58   0.280   0.220   0.198
    1UNL    H22   59   0.572   0.066  -0.111
    1UNL    H23   60   0.631  -0.177   0.046
    1UNL    H24   61   0.832  -0.288  -0.009
    1UNL    H25   62   1.034  -0.319  -0.146
    1UNL    H26   63   1.099  -0.096  -0.425
    1UNL    H27   64   0.862   0.096  -0.431
    1UNL    H28   65   0.724   0.051  -0.250
    1UNL    H29   66  -0.026   0.186   0.200
    1UNL    H30   67   0.067   0.088   0.297
    1UNL    H31   68  -0.044  -0.118   0.222
    1UNL    H32   69  -0.274   0.037   0.205
   0.00000   0.00000   0.00000   0.00000   0.00000   0.00000   0.00000   0.00000   0.00000
Generated with MDTraj, t= 49.0
 69
    1UNL     O1    1  -0.204   0.207   0.041
    1UNL     C1    2  -0.180   0.113  -0.029
    1UNL     C2    3  -0.130  -0.022   0.023
    1UNL     C3    4  -0.237  -0.127   0.008
    1UNL     C4    5  -0.363  -0.124   0.058
    1UNL     O2    6  -0.420  -0.005   0.090
    1UNL     C5    7  -0.560  -0.014   0.109
    1UNL     O3    8  -0.642   0.096   0.172
    1UNL     C6    9  -0.670   0.211   0.086
    1UNL     C7   10  -0.554   0.286   0.049
    1UNL     O4   11  -0.482   0.223  -0.059
    1UNL     C8   12  -0.769   0.163  -0.036
    1UNL     O5   13  -0.731   0.225  -0.157
    1UNL     C9   14  -0.775   0.006  -0.050
    1UNL     O6   15  -0.865  -0.046   0.048
    1UNL    C10   16  -0.629  -0.051  -0.029
    1UNL     O7   17  -0.612  -0.182  -0.060
    1UNL    C11   18  -0.001  -0.060  -0.061
    1UNL    C12   19   0.140  -0.041   0.012
    1UNL    C13   20   0.139   0.088   0.100
    1UNL    C14   21   0.277   0.098   0.156
    1UNL     O8   22   0.389   0.111   0.065
    1UNL    C15   23   0.458  -0.010   0.052
    1UNL     O9   24   0.416  -0.115   0.100
    1UNL    C16   25   0.569  -0.015  -0.037
    1UNL    C17   26   0.646  -0.124  -0.045
    1UNL    C18   27   0.770  -0.141  -0.121
    1UNL    C19   28   0.879  -0.214  -0.077
    1UNL    C20   29   0.998  -0.226  -0.155
    1UNL    C21   30   1.009  -0.149  -0.271
    1UNL    O10   31   1.118  -0.154  -0.349
    1UNL    C22   32   0.903  -0.063  -0.311
    1UNL    O11   33   0.930   0.013  -0.418
    1UNL    C23   34   0.789  -0.059  -0.236
    1UNL    C24   35   0.020   0.092   0.206
    1UNL    C25   36  -0.089  -0.012   0.172
    1UNL    O12   37  -0.197   0.011   0.257
    1UNL     H1   38  -0.209   0.110  -0.133
    1UNL     H2   39  -0.207  -0.221  -0.035
    1UNL     H3   40  -0.420  -0.213   0.042
    1UNL     H4   41  -0.566  -0.097   0.190
    1UNL     H5   42  -0.742   0.279   0.148
    1UNL     H6   43  -0.597   0.384   0.003
    1UNL     H7   44  -0.480   0.306   0.118
    1UNL     H8   45  -0.388   0.204  -0.034
    1UNL     H9   46  -0.872   0.198  -0.017
    1UNL    H10   47  -0.635   0.222  -0.160
    1UNL    H11   48  -0.805  -0.016  -0.155
    1UNL    H12   49  -0.839  -0.006   0.134
    1UNL    H13   50  -0.560   0.013  -0.095
    1UNL    H14   51  -0.692  -0.229  -0.026
    1UNL    H15   52  -0.010  -0.167  -0.115
    1UNL    H16   53   0.009   0.022  -0.134
    1UNL    H17   54   0.222  -0.042  -0.057
    1UNL    H18   55   0.152  -0.132   0.066
    1UNL    H19   56   0.122   0.170   0.029
    1UNL    H20   57   0.301   0.011   0.221
    1UNL    H21   58   0.275   0.183   0.224
    1UNL    H22   59   0.577   0.073  -0.098
    1UNL    H23   60   0.631  -0.205   0.025
    1UNL    H24   61   0.870  -0.259   0.017
    1UNL    H25   62   1.082  -0.285  -0.116
    1UNL    H26   63   1.101  -0.100  -0.425
    1UNL    H27   64   0.861   0.085  -0.430
    1UNL    H28   65   0.707  -0.002  -0.278
    1UNL    H29   66  -0.022   0.194   0.221
    1UNL    H30   67   0.063   0.072   0.307
    1UNL    H31   68  -0.055  -0.114   0.197
    1UNL    H32   69  -0.277   0.032   0.198
   0.00000   0.00000   0.00000   0.00000   0.00000   0.00000   0.00000   0.00000   0.00000
Generated with MDTraj, t= 50.0
 69
    1UNL     O1    1  -0.213   0.213   0.044
    1UNL     C1    2  -0.184   0.120  -0.022
    1UNL     C2    3  -0.126  -0.009   0.024
    1UNL     C3    4  -0.227  -0.121   0.016
    1UNL     C4    5  -0.359  -0.102   0.037
    1UNL     O2    6  -0.418   0.010   0.076
    1UNL     C5    7  -0.552  -0.005   0.091
    1UNL     O3    8  -0.631   0.090   0.173
    1UNL     C6    9  -0.686   0.201   0.096
    1UNL     C7   10  -0.583   0.292   0.055
    1UNL     O4   11  -0.495   0.240  -0.049
    1UNL     C8   12  -0.788   0.152  -0.024
    1UNL     O5   13  -0.759   0.224  -0.139
    1UNL     C9   14  -0.771  -0.000  -0.046
    1UNL     O6   15  -0.834  -0.079   0.050
    1UNL    C10   16  -0.628  -0.047  -0.043
    1UNL     O7   17  -0.609  -0.182  -0.078
    1UNL    C11   18  -0.004  -0.051  -0.069
    1UNL    C12   19   0.130  -0.044   0.006
    1UNL    C13   20   0.149   0.091   0.084
    1UNL    C14   21   0.282   0.092   0.163
    1UNL     O8   22   0.392   0.093   0.070
    1UNL    C15   23   0.452  -0.026   0.061
    1UNL     O9   24   0.417  -0.126   0.125
    1UNL    C16   25   0.560  -0.032  -0.049
    1UNL    C17   26   0.648  -0.136  -0.045
    1UNL    C18   27   0.771  -0.136  -0.120
    1UNL    C19   28   0.868  -0.230  -0.094
    1UNL    C20   29   0.994  -0.222  -0.145
    1UNL    C21   30   1.010  -0.148  -0.266
    1UNL    O10   31   1.132  -0.137  -0.334
    1UNL    C22   32   0.908  -0.068  -0.315
    1UNL    O11   33   0.934  -0.005  -0.430
    1UNL    C23   34   0.794  -0.058  -0.234
    1UNL    C24   35   0.025   0.112   0.177
    1UNL    C25   36  -0.081   0.002   0.175
    1UNL    O12   37  -0.181   0.031   0.274
    1UNL     H1   38  -0.211   0.133  -0.131
    1UNL     H2   39  -0.183  -0.212  -0.019
    1UNL     H3   40  -0.431  -0.192   0.028
    1UNL     H4   41  -0.579  -0.106   0.148
    1UNL     H5   42  -0.753   0.246   0.178
    1UNL     H6   43  -0.624   0.381  -0.005
    1UNL     H7   44  -0.533   0.331   0.136
    1UNL     H8   45  -0.408   0.215  -0.009
    1UNL     H9   46  -0.893   0.157   0.003
    1UNL    H10   47  -0.666   0.233  -0.157
    1UNL    H11   48  -0.814  -0.029  -0.146
    1UNL    H12   49  -0.796  -0.052   0.137
    1UNL    H13   50  -0.573   0.007  -0.128
    1UNL    H14   51  -0.691  -0.233  -0.062
    1UNL    H15   52  -0.026  -0.161  -0.098
    1UNL    H16   53   0.006   0.014  -0.158
    1UNL    H17   54   0.205  -0.063  -0.063
    1UNL    H18   55   0.142  -0.127   0.075
    1UNL    H19   56   0.168   0.162   0.004
    1UNL    H20   57   0.292   0.001   0.222
    1UNL    H21   58   0.298   0.171   0.234
    1UNL    H22   59   0.593   0.058  -0.090
    1UNL    H23   60   0.632  -0.216   0.028
    1UNL    H24   61   0.848  -0.295   0.001
    1UNL    H25   62   1.075  -0.279  -0.114
    1UNL    H26   63   1.117  -0.059  -0.398
    1UNL    H27   64   0.852   0.048  -0.458
    1UNL    H28   65   0.717   0.001  -0.277
    1UNL    H29   66  -0.008   0.216   0.157
    1UNL    H30   67   0.076   0.117   0.275
    1UNL    H31   68  -0.049  -0.102   0.198
    1UNL    H32   69  -0.263   0.049   0.228
   0.00000   0.00000   0.00000   0.00000   0.00000   0.00000   0.00000   0.00000   0.00000
Generated with MDTraj, t= 51.0
 69
    1UNL     O1    1  -0.248   0.203   0.012
    1UNL     C1    2  -0.187   0.114  -0.042
    1UNL     C2    3  -0.118  -0.005   0.022
    1UNL     C3    4  -0.219  -0.114   0.004
    1UNL     C4    5  -0.351  -0.109   0.026
    1UNL     O2    6  -0.419  -0.000   0.078
    1UNL     C5    7  -0.557  -0.025   0.086
    1UNL     O3    8  -0.629   0.068   0.170
    1UNL     C6    9  -0.686   0.189   0.105
    1UNL     C7   10  -0.589   0.293   0.072
    1UNL     O4   11  -0.510   0.254  -0.046
    1UNL     C8   12  -0.786   0.148  -0.004
    1UNL     O5   13  -0.775   0.228  -0.118
    1UNL     C9   14  -0.773  -0.002  -0.040
    1UNL     O6   15  -0.844  -0.089   0.053
    1UNL    C10   16  -0.627  -0.043  -0.058
    1UNL     O7   17  -0.628  -0.175  -0.092
    1UNL    C11   18   0.008  -0.034  -0.067
    1UNL    C12   19   0.141  -0.028   0.010
    1UNL    C13   20   0.161   0.099   0.093
    1UNL    C14   21   0.301   0.106   0.156
    1UNL     O8   22   0.395   0.097   0.060
    1UNL    C15   23   0.456  -0.027   0.046
    1UNL     O9   24   0.409  -0.123   0.103
    1UNL    C16   25   0.580  -0.039  -0.035
    1UNL    C17   26   0.655  -0.148  -0.035
    1UNL    C18   27   0.772  -0.161  -0.122
    1UNL    C19   28   0.885  -0.233  -0.076
    1UNL    C20   29   0.996  -0.237  -0.152
    1UNL    C21   30   1.016  -0.148  -0.258
    1UNL    O10   31   1.127  -0.142  -0.339
    1UNL    C22   32   0.906  -0.067  -0.297
    1UNL    O11   33   0.924   0.008  -0.409
    1UNL    C23   34   0.785  -0.080  -0.233
    1UNL    C24   35   0.045   0.114   0.195
    1UNL    C25   36  -0.077   0.025   0.171
    1UNL    O12   37  -0.184   0.063   0.256
    1UNL     H1   38  -0.172   0.123  -0.144
    1UNL     H2   39  -0.170  -0.208  -0.021
    1UNL     H3   40  -0.408  -0.195   0.008
    1UNL     H4   41  -0.574  -0.120   0.154
    1UNL     H5   42  -0.748   0.242   0.183
    1UNL     H6   43  -0.632   0.398   0.062
    1UNL     H7   44  -0.517   0.306   0.142
    1UNL     H8   45  -0.418   0.228  -0.025
    1UNL     H9   46  -0.881   0.162   0.042
    1UNL    H10   47  -0.672   0.243  -0.138
    1UNL    H11   48  -0.820  -0.010  -0.143
    1UNL    H12   49  -0.801  -0.076   0.140
    1UNL    H13   50  -0.557   0.023  -0.118
    1UNL    H14   51  -0.693  -0.224  -0.035
    1UNL    H15   52  -0.007  -0.139  -0.099
    1UNL    H16   53   0.009   0.038  -0.152
    1UNL    H17   54   0.221  -0.045  -0.052
    1UNL    H18   55   0.144  -0.114   0.076
    1UNL    H19   56   0.157   0.175   0.013
    1UNL    H20   57   0.324   0.041   0.240
    1UNL    H21   58   0.312   0.210   0.185
    1UNL    H22   59   0.614   0.057  -0.078
    1UNL    H23   60   0.632  -0.218   0.041
    1UNL    H24   61   0.873  -0.273   0.016
    1UNL    H25   62   1.091  -0.282  -0.113
    1UNL    H26   63   1.100  -0.110  -0.428
    1UNL    H27   64   0.842   0.066  -0.416
    1UNL    H28   65   0.701  -0.026  -0.276
    1UNL    H29   66   0.011   0.219   0.188
    1UNL    H30   67   0.088   0.110   0.297
    1UNL    H31   68  -0.064  -0.077   0.217
    1UNL    H32   69  -0.273   0.063   0.213
   0.00000   0.00000   0.00000   0.00000   0.00000   0.00000   0.00000   0.00000   0.00000
Generated with MDTraj, t= 52.0
 69
    1UNL     O1    1  -0.232   0.208  -0.001
    1UNL     C1    2  -0.162   0.132  -0.060
    1UNL     C2    3  -0.110   0.006  -0.001
    1UNL     C3    4  -0.222  -0.099  -0.020
    1UNL     C4    5  -0.348  -0.091   0.019
    1UNL     O2    6  -0.427   0.015   0.077
    1UNL     C5    7  -0.561  -0.025   0.093
    1UNL     O3    8  -0.634   0.051   0.188
    1UNL     C6    9  -0.684   0.171   0.136
    1UNL     C7   10  -0.568   0.258   0.089
    1UNL     O4   11  -0.511   0.223  -0.042
    1UNL     C8   12  -0.795   0.146   0.021
    1UNL     O5   13  -0.785   0.235  -0.092
    1UNL     C9   14  -0.776  -0.000  -0.034
    1UNL     O6   15  -0.854  -0.091   0.043
    1UNL    C10   16  -0.629  -0.038  -0.049
    1UNL     O7   17  -0.610  -0.172  -0.097
    1UNL    C11   18   0.021  -0.045  -0.077
    1UNL    C12   19   0.150  -0.042   0.013
    1UNL    C13   20   0.152   0.093   0.083
    1UNL    C14   21   0.288   0.112   0.149
    1UNL     O8   22   0.400   0.104   0.068
    1UNL    C15   23   0.448  -0.023   0.052
    1UNL     O9   24   0.401  -0.121   0.104
    1UNL    C16   25   0.575  -0.024  -0.022
    1UNL    C17   26   0.655  -0.129  -0.024
    1UNL    C18   27   0.776  -0.143  -0.097
    1UNL    C19   28   0.871  -0.244  -0.080
    1UNL    C20   29   0.992  -0.246  -0.152
    1UNL    C21   30   1.011  -0.161  -0.266
    1UNL    O10   31   1.128  -0.168  -0.337
    1UNL    C22   32   0.909  -0.071  -0.293
    1UNL    O11   33   0.932   0.007  -0.411
    1UNL    C23   34   0.791  -0.068  -0.223
    1UNL    C24   35   0.037   0.117   0.178
    1UNL    C25   36  -0.082   0.031   0.154
    1UNL    O12   37  -0.193   0.085   0.215
    1UNL     H1   38  -0.108   0.181  -0.145
    1UNL     H2   39  -0.193  -0.197  -0.051
    1UNL     H3   40  -0.403  -0.180   0.005
    1UNL     H4   41  -0.574  -0.133   0.140
    1UNL     H5   42  -0.732   0.226   0.216
    1UNL     H6   43  -0.603   0.358   0.053
    1UNL     H7   44  -0.503   0.282   0.165
    1UNL     H8   45  -0.415   0.200  -0.031
    1UNL     H9   46  -0.892   0.156   0.069
    1UNL    H10   47  -0.687   0.243  -0.115
    1UNL    H11   48  -0.820  -0.002  -0.139
    1UNL    H12   49  -0.824  -0.088   0.136
    1UNL    H13   50  -0.578   0.024  -0.127
    1UNL    H14   51  -0.662  -0.240  -0.049
    1UNL    H15   52   0.004  -0.149  -0.085
    1UNL    H16   53   0.026   0.019  -0.170
    1UNL    H17   54   0.231  -0.054  -0.049
    1UNL    H18   55   0.156  -0.122   0.083
    1UNL    H19   56   0.132   0.165   0.001
    1UNL    H20   57   0.293   0.026   0.220
    1UNL    H21   58   0.288   0.209   0.195
    1UNL    H22   59   0.603   0.062  -0.074
    1UNL    H23   60   0.626  -0.212   0.045
    1UNL    H24   61   0.859  -0.329  -0.009
    1UNL    H25   62   1.071  -0.301  -0.115
    1UNL    H26   63   1.132  -0.087  -0.389
    1UNL    H27   64   0.859   0.070  -0.425
    1UNL    H28   65   0.716   0.002  -0.254
    1UNL    H29   66   0.005   0.224   0.177
    1UNL    H30   67   0.070   0.107   0.283
    1UNL    H31   68  -0.068  -0.065   0.210
    1UNL    H32   69  -0.270   0.068   0.152
   0.00000   0.00000   0.00000   0.00000   0.00000   0.00000   0.00000   0.00000   0.00000
Generated with MDTraj, t= 53.0
 69
    1UNL     O1    1  -0.230   0.224  -0.046
    1UNL     C1    2  -0.152   0.144  -0.088
    1UNL     C2    3  -0.115   0.013  -0.020
    1UNL     C3    4  -0.226  -0.094  -0.046
    1UNL     C4    5  -0.351  -0.099  -0.003
    1UNL     O2    6  -0.420  -0.011   0.085
    1UNL     C5    7  -0.559  -0.046   0.094
    1UNL     O3    8  -0.629   0.034   0.190
    1UNL     C6    9  -0.672   0.165   0.144
    1UNL     C7   10  -0.560   0.261   0.094
    1UNL     O4   11  -0.524   0.235  -0.037
    1UNL     C8   12  -0.787   0.141   0.043
    1UNL     O5   13  -0.794   0.243  -0.054
    1UNL     C9   14  -0.772   0.001  -0.035
    1UNL     O6   15  -0.847  -0.086   0.047
    1UNL    C10   16  -0.627  -0.040  -0.047
    1UNL     O7   17  -0.621  -0.172  -0.095
    1UNL    C11   18   0.019  -0.052  -0.077
    1UNL    C12   19   0.144  -0.041   0.019
    1UNL    C13   20   0.156   0.101   0.080
    1UNL    C14   21   0.281   0.116   0.160
    1UNL     O8   22   0.394   0.121   0.079
    1UNL    C15   23   0.455  -0.001   0.070
    1UNL     O9   24   0.429  -0.109   0.118
    1UNL    C16   25   0.570  -0.010  -0.023
    1UNL    C17   26   0.650  -0.119  -0.032
    1UNL    C18   27   0.770  -0.138  -0.119
    1UNL    C19   28   0.861  -0.239  -0.080
    1UNL    C20   29   0.979  -0.262  -0.147
    1UNL    C21   30   1.008  -0.185  -0.254
    1UNL    O10   31   1.117  -0.204  -0.335
    1UNL    C22   32   0.921  -0.071  -0.292
    1UNL    O11   33   0.950   0.013  -0.400
    1UNL    C23   34   0.812  -0.044  -0.214
    1UNL    C24   35   0.024   0.125   0.162
    1UNL    C25   36  -0.092   0.027   0.137
    1UNL    O12   37  -0.203   0.068   0.214
    1UNL     H1   38  -0.104   0.165  -0.185
    1UNL     H2   39  -0.209  -0.174  -0.118
    1UNL     H3   40  -0.408  -0.194  -0.039
    1UNL     H4   41  -0.548  -0.155   0.140
    1UNL     H5   42  -0.726   0.212   0.221
    1UNL     H6   43  -0.598   0.366   0.103
    1UNL     H7   44  -0.474   0.248   0.150
    1UNL     H8   45  -0.423   0.230  -0.039
    1UNL     H9   46  -0.883   0.125   0.096
    1UNL    H10   47  -0.714   0.265  -0.095
    1UNL    H11   48  -0.826   0.006  -0.133
    1UNL    H12   49  -0.814  -0.083   0.140
    1UNL    H13   50  -0.573   0.034  -0.110
    1UNL    H14   51  -0.684  -0.228  -0.044
    1UNL    H15   52  -0.010  -0.150  -0.088
    1UNL    H16   53   0.034  -0.006  -0.178
    1UNL    H17   54   0.237  -0.072  -0.020
    1UNL    H18   55   0.128  -0.104   0.100
    1UNL    H19   56   0.169   0.177  -0.001
    1UNL    H20   57   0.285   0.022   0.224
    1UNL    H21   58   0.275   0.209   0.217
    1UNL    H22   59   0.573   0.076  -0.090
    1UNL    H23   60   0.616  -0.202   0.025
    1UNL    H24   61   0.840  -0.296   0.008
    1UNL    H25   62   1.051  -0.340  -0.114
    1UNL    H26   63   1.103  -0.153  -0.423
    1UNL    H27   64   0.876   0.073  -0.403
    1UNL    H28   65   0.746   0.040  -0.230
    1UNL    H29   66  -0.014   0.228   0.141
    1UNL    H30   67   0.043   0.134   0.270
    1UNL    H31   68  -0.057  -0.072   0.174
    1UNL    H32   69  -0.284   0.041   0.163
   0.00000   0.00000   0.00000   0.00000   0.00000   0.00000   0.00000   0.00000   0.00000
Generated with MDTraj, t= 54.0
 69
    1UNL     O1    1  -0.266   0.189  -0.058
    1UNL     C1    2  -0.157   0.140  -0.081
    1UNL     C2    3  -0.110   0.006  -0.021
    1UNL     C3    4  -0.220  -0.107  -0.046
    1UNL     C4    5  -0.354  -0.105  -0.017
    1UNL     O2    6  -0.416  -0.003   0.054
    1UNL     C5    7  -0.549  -0.047   0.074
    1UNL     O3    8  -0.613   0.013   0.185
    1UNL     C6    9  -0.660   0.149   0.161
    1UNL     C7   10  -0.549   0.250   0.111
    1UNL     O4   11  -0.520   0.222  -0.022
    1UNL     C8   12  -0.781   0.149   0.060
    1UNL     O5   13  -0.774   0.245  -0.043
    1UNL     C9   14  -0.785   0.011  -0.014
    1UNL     O6   15  -0.839  -0.092   0.065
    1UNL    C10   16  -0.641  -0.035  -0.052
    1UNL     O7   17  -0.653  -0.165  -0.121
    1UNL    C11   18   0.023  -0.060  -0.087
    1UNL    C12   19   0.145  -0.025  -0.001
    1UNL    C13   20   0.153   0.114   0.073
    1UNL    C14   21   0.284   0.139   0.141
    1UNL     O8   22   0.401   0.141   0.066
    1UNL    C15   23   0.462   0.016   0.068
    1UNL     O9   24   0.423  -0.086   0.120
    1UNL    C16   25   0.585   0.012  -0.013
    1UNL    C17   26   0.659  -0.101  -0.013
    1UNL    C18   27   0.773  -0.129  -0.100
    1UNL    C19   28   0.838  -0.255  -0.090
    1UNL    C20   29   0.956  -0.284  -0.157
    1UNL    C21   30   0.996  -0.193  -0.255
    1UNL    O10   31   1.107  -0.227  -0.334
    1UNL    C22   32   0.925  -0.073  -0.281
    1UNL    O11   33   0.963   0.015  -0.377
    1UNL    C23   34   0.812  -0.047  -0.202
    1UNL    C24   35   0.034   0.115   0.175
    1UNL    C25   36  -0.090   0.024   0.137
    1UNL    O12   37  -0.207   0.090   0.195
    1UNL     H1   38  -0.104   0.180  -0.160
    1UNL     H2   39  -0.186  -0.187  -0.110
    1UNL     H3   40  -0.420  -0.171  -0.069
    1UNL     H4   41  -0.527  -0.160   0.101
    1UNL     H5   42  -0.697   0.165   0.256
    1UNL     H6   43  -0.590   0.354   0.110
    1UNL     H7   44  -0.473   0.232   0.180
    1UNL     H8   45  -0.427   0.202  -0.043
    1UNL     H9   46  -0.870   0.167   0.126
    1UNL    H10   47  -0.682   0.246  -0.085
    1UNL    H11   48  -0.840   0.035  -0.106
    1UNL    H12   49  -0.792  -0.093   0.150
    1UNL    H13   50  -0.609   0.030  -0.134
    1UNL    H14   51  -0.716  -0.223  -0.073
    1UNL    H15   52   0.012  -0.161  -0.095
    1UNL    H16   53   0.028  -0.017  -0.189
    1UNL    H17   54   0.231  -0.029  -0.064
    1UNL    H18   55   0.166  -0.097   0.069
    1UNL    H19   56   0.143   0.197  -0.000
    1UNL    H20   57   0.302   0.062   0.224
    1UNL    H21   58   0.278   0.242   0.183
    1UNL    H22   59   0.603   0.095  -0.078
    1UNL    H23   60   0.611  -0.182   0.047
    1UNL    H24   61   0.809  -0.328  -0.015
    1UNL    H25   62   1.000  -0.382  -0.159
    1UNL    H26   63   1.130  -0.150  -0.384
    1UNL    H27   64   0.921   0.101  -0.374
    1UNL    H28   65   0.753   0.034  -0.235
    1UNL    H29   66  -0.000   0.220   0.192
    1UNL    H30   67   0.075   0.085   0.272
    1UNL    H31   68  -0.084  -0.075   0.184
    1UNL    H32   69  -0.291   0.062   0.157
   0.00000   0.00000   0.00000   0.00000   0.00000   0.00000   0.00000   0.00000   0.00000
Generated with MDTraj, t= 55.0
 69
    1UNL     O1    1  -0.237   0.182  -0.081
    1UNL     C1    2  -0.131   0.133  -0.096
    1UNL     C2    3  -0.101  -0.002  -0.023
    1UNL     C3    4  -0.208  -0.109  -0.054
    1UNL     C4    5  -0.343  -0.104  -0.028
    1UNL     O2    6  -0.411   0.001   0.033
    1UNL     C5    7  -0.547  -0.048   0.063
    1UNL     O3    8  -0.599   0.008   0.183
    1UNL     C6    9  -0.651   0.135   0.165
    1UNL     C7   10  -0.540   0.240   0.121
    1UNL     O4   11  -0.520   0.247  -0.019
    1UNL     C8   12  -0.788   0.136   0.076
    1UNL     O5   13  -0.809   0.249  -0.007
    1UNL     C9   14  -0.794   0.005  -0.007
    1UNL     O6   15  -0.847  -0.098   0.074
    1UNL    C10   16  -0.652  -0.030  -0.051
    1UNL     O7   17  -0.657  -0.151  -0.127
    1UNL    C11   18   0.040  -0.065  -0.077
    1UNL    C12   19   0.166  -0.025   0.006
    1UNL    C13   20   0.148   0.120   0.064
    1UNL    C14   21   0.277   0.171   0.125
    1UNL     O8   22   0.393   0.149   0.042
    1UNL    C15   23   0.454   0.025   0.057
    1UNL     O9   24   0.409  -0.057   0.134
    1UNL    C16   25   0.575   0.014  -0.027
    1UNL    C17   26   0.642  -0.103  -0.018
    1UNL    C18   27   0.760  -0.132  -0.094
    1UNL    C19   28   0.817  -0.256  -0.084
    1UNL    C20   29   0.930  -0.294  -0.165
    1UNL    C21   30   0.990  -0.200  -0.253
    1UNL    O10   31   1.085  -0.239  -0.340
    1UNL    C22   32   0.935  -0.074  -0.263
    1UNL    O11   33   0.988   0.016  -0.349
    1UNL    C23   34   0.822  -0.042  -0.180
    1UNL    C24   35   0.037   0.112   0.175
    1UNL    C25   36  -0.081   0.015   0.130
    1UNL    O12   37  -0.200   0.068   0.187
    1UNL     H1   38  -0.060   0.185  -0.167
    1UNL     H2   39  -0.171  -0.192  -0.117
    1UNL     H3   40  -0.407  -0.178  -0.059
    1UNL     H4   41  -0.516  -0.158   0.092
    1UNL     H5   42  -0.683   0.165   0.258
    1UNL     H6   43  -0.592   0.335   0.155
    1UNL     H7   44  -0.447   0.223   0.168
    1UNL     H8   45  -0.432   0.208  -0.033
    1UNL     H9   46  -0.870   0.132   0.154
    1UNL    H10   47  -0.716   0.267  -0.052
    1UNL    H11   48  -0.857   0.022  -0.093
    1UNL    H12   49  -0.795  -0.113   0.157
    1UNL    H13   50  -0.611   0.047  -0.113
    1UNL    H14   51  -0.725  -0.212  -0.093
    1UNL    H15   52   0.041  -0.168  -0.093
    1UNL    H16   53   0.065  -0.016  -0.175
    1UNL    H17   54   0.259  -0.030  -0.048
    1UNL    H18   55   0.174  -0.096   0.080
    1UNL    H19   56   0.111   0.190  -0.014
    1UNL    H20   57   0.301   0.108   0.217
    1UNL    H21   58   0.274   0.280   0.144
    1UNL    H22   59   0.602   0.083  -0.102
    1UNL    H23   60   0.605  -0.165   0.059
    1UNL    H24   61   0.769  -0.326  -0.016
    1UNL    H25   62   0.978  -0.391  -0.153
    1UNL    H26   63   1.098  -0.169  -0.409
    1UNL    H27   64   0.962   0.110  -0.339
    1UNL    H28   65   0.789   0.063  -0.184
    1UNL    H29   66  -0.007   0.214   0.192
    1UNL    H30   67   0.070   0.074   0.273
    1UNL    H31   68  -0.073  -0.080   0.180
    1UNL    H32   69  -0.277   0.045   0.133
   0.00000   0.00000   0.00000   0.00000   0.00000   0.00000   0.00000   0.00000   0.00000
Generated with MDTraj, t= 56.0
 69
    1UNL     O1    1  -0.241   0.184  -0.069
    1UNL     C1    2  -0.146   0.121  -0.100
    1UNL     C2    3  -0.112  -0.012  -0.032
    1UNL     C3    4  -0.208  -0.114  -0.073
    1UNL     C4    5  -0.338  -0.107  -0.044
    1UNL     O2    6  -0.403  -0.003   0.020
    1UNL     C5    7  -0.534  -0.049   0.069
    1UNL     O3    8  -0.577   0.010   0.191
    1UNL     C6    9  -0.640   0.136   0.179
    1UNL     C7   10  -0.546   0.236   0.118
    1UNL     O4   11  -0.516   0.216  -0.015
    1UNL     C8   12  -0.775   0.132   0.092
    1UNL     O5   13  -0.794   0.252   0.022
    1UNL     C9   14  -0.772   0.011  -0.006
    1UNL     O6   15  -0.820  -0.097   0.073
    1UNL    C10   16  -0.630  -0.022  -0.052
    1UNL     O7   17  -0.634  -0.138  -0.131
    1UNL    C11   18   0.027  -0.067  -0.089
    1UNL    C12   19   0.153  -0.018  -0.007
    1UNL    C13   20   0.130   0.127   0.051
    1UNL    C14   21   0.261   0.172   0.125
    1UNL     O8   22   0.375   0.155   0.035
    1UNL    C15   23   0.454   0.045   0.049
    1UNL     O9   24   0.431  -0.031   0.137
    1UNL    C16   25   0.573   0.024  -0.032
    1UNL    C17   26   0.643  -0.091  -0.014
    1UNL    C18   27   0.751  -0.133  -0.097
    1UNL    C19   28   0.790  -0.267  -0.103
    1UNL    C20   29   0.899  -0.302  -0.174
    1UNL    C21   30   0.967  -0.217  -0.248
    1UNL    O10   31   1.083  -0.240  -0.325
    1UNL    C22   32   0.931  -0.077  -0.245
    1UNL    O11   33   1.003   0.008  -0.324
    1UNL    C23   34   0.823  -0.038  -0.170
    1UNL    C24   35   0.015   0.125   0.142
    1UNL    C25   36  -0.093   0.011   0.126
    1UNL    O12   37  -0.209   0.053   0.193
    1UNL     H1   38  -0.067   0.167  -0.157
    1UNL     H2   39  -0.170  -0.199  -0.123
    1UNL     H3   40  -0.404  -0.196  -0.076
    1UNL     H4   41  -0.534  -0.168   0.070
    1UNL     H5   42  -0.654   0.170   0.275
    1UNL     H6   43  -0.584   0.343   0.124
    1UNL     H7   44  -0.465   0.221   0.187
    1UNL     H8   45  -0.421   0.204  -0.035
    1UNL     H9   46  -0.866   0.118   0.156
    1UNL    H10   47  -0.720   0.271  -0.029
    1UNL    H11   48  -0.842   0.036  -0.083
    1UNL    H12   49  -0.767  -0.104   0.155
    1UNL    H13   50  -0.595   0.054  -0.118
    1UNL    H14   51  -0.700  -0.202  -0.095
    1UNL    H15   52   0.037  -0.175  -0.095
    1UNL    H16   53   0.049  -0.039  -0.195
    1UNL    H17   54   0.234  -0.020  -0.075
    1UNL    H18   55   0.175  -0.082   0.075
    1UNL    H19   56   0.111   0.199  -0.032
    1UNL    H20   57   0.285   0.112   0.216
    1UNL    H21   58   0.264   0.279   0.144
    1UNL    H22   59   0.598   0.095  -0.110
    1UNL    H23   60   0.609  -0.153   0.071
    1UNL    H24   61   0.736  -0.344  -0.051
    1UNL    H25   62   0.940  -0.402  -0.157
    1UNL    H26   63   1.124  -0.164  -0.377
    1UNL    H27   64   0.979   0.102  -0.299
    1UNL    H28   65   0.815   0.066  -0.142
    1UNL    H29   66  -0.049   0.217   0.136
    1UNL    H30   67   0.064   0.124   0.241
    1UNL    H31   68  -0.056  -0.080   0.169
    1UNL    H32   69  -0.285   0.037   0.129
   0.00000   0.00000   0.00000   0.00000   0.00000   0.00000   0.00000   0.00000   0.00000
Generated with MDTraj, t= 57.0
 69
    1UNL     O1    1  -0.215   0.201  -0.038
    1UNL     C1    2  -0.180   0.106  -0.104
    1UNL     C2    3  -0.117  -0.016  -0.052
    1UNL     C3    4  -0.206  -0.132  -0.074
    1UNL     C4    5  -0.332  -0.134  -0.033
    1UNL     O2    6  -0.397  -0.025   0.029
    1UNL     C5    7  -0.537  -0.058   0.069
    1UNL     O3    8  -0.581   0.000   0.191
    1UNL     C6    9  -0.634   0.136   0.184
    1UNL     C7   10  -0.533   0.242   0.133
    1UNL     O4   11  -0.502   0.251  -0.013
    1UNL     C8   12  -0.765   0.138   0.092
    1UNL     O5   13  -0.775   0.247   0.003
    1UNL     C9   14  -0.766   0.007   0.016
    1UNL     O6   15  -0.826  -0.103   0.087
    1UNL    C10   16  -0.632  -0.030  -0.050
    1UNL     O7   17  -0.643  -0.139  -0.138
    1UNL    C11   18   0.030  -0.043  -0.118
    1UNL    C12   19   0.160  -0.005  -0.040
    1UNL    C13   20   0.134   0.130   0.035
    1UNL    C14   21   0.259   0.183   0.107
    1UNL     O8   22   0.381   0.175   0.037
    1UNL    C15   23   0.447   0.060   0.068
    1UNL     O9   24   0.410  -0.024   0.144
    1UNL    C16   25   0.564   0.036  -0.018
    1UNL    C17   26   0.623  -0.087  -0.024
    1UNL    C18   27   0.734  -0.134  -0.105
    1UNL    C19   28   0.767  -0.266  -0.109
    1UNL    C20   29   0.882  -0.306  -0.176
    1UNL    C21   30   0.967  -0.215  -0.242
    1UNL    O10   31   1.074  -0.248  -0.317
    1UNL    C22   32   0.932  -0.081  -0.239
    1UNL    O11   33   1.033   0.001  -0.301
    1UNL    C23   34   0.817  -0.036  -0.168
    1UNL    C24   35   0.019   0.121   0.134
    1UNL    C25   36  -0.089   0.010   0.105
    1UNL    O12   37  -0.201   0.029   0.189
    1UNL     H1   38  -0.166   0.119  -0.207
    1UNL     H2   39  -0.154  -0.225  -0.095
    1UNL     H3   40  -0.386  -0.230  -0.037
    1UNL     H4   41  -0.533  -0.174   0.087
    1UNL     H5   42  -0.659   0.173   0.279
    1UNL     H6   43  -0.578   0.337   0.176
    1UNL     H7   44  -0.440   0.227   0.184
    1UNL     H8   45  -0.407   0.237  -0.027
    1UNL     H9   46  -0.858   0.126   0.148
    1UNL    H10   47  -0.687   0.256  -0.041
    1UNL    H11   48  -0.833   0.016  -0.067
    1UNL    H12   49  -0.768  -0.126   0.163
    1UNL    H13   50  -0.579   0.048  -0.102
    1UNL    H14   51  -0.716  -0.191  -0.096
    1UNL    H15   52   0.044  -0.153  -0.153
    1UNL    H16   53   0.040   0.005  -0.218
    1UNL    H17   54   0.251   0.001  -0.094
    1UNL    H18   55   0.172  -0.089   0.029
    1UNL    H19   56   0.107   0.203  -0.047
    1UNL    H20   57   0.280   0.139   0.205
    1UNL    H21   58   0.250   0.289   0.118
    1UNL    H22   59   0.612   0.120  -0.059
    1UNL    H23   60   0.562  -0.160   0.024
    1UNL    H24   61   0.711  -0.343  -0.056
    1UNL    H25   62   0.907  -0.407  -0.192
    1UNL    H26   63   1.117  -0.169  -0.349
    1UNL    H27   64   1.033   0.099  -0.272
    1UNL    H28   65   0.771   0.060  -0.177
    1UNL    H29   66  -0.033   0.220   0.121
    1UNL    H30   67   0.050   0.122   0.240
    1UNL    H31   68  -0.040  -0.084   0.131
    1UNL    H32   69  -0.257   0.087   0.136
   0.00000   0.00000   0.00000   0.00000   0.00000   0.00000   0.00000   0.00000   0.00000
Generated with MDTraj, t= 58.0
 69
    1UNL     O1    1  -0.211   0.199  -0.019
    1UNL     C1    2  -0.192   0.102  -0.084
    1UNL     C2    3  -0.108  -0.010  -0.038
    1UNL     C3    4  -0.192  -0.134  -0.057
    1UNL     C4    5  -0.324  -0.133  -0.029
    1UNL     O2    6  -0.399  -0.022   0.018
    1UNL     C5    7  -0.531  -0.060   0.059
    1UNL     O3    8  -0.574   0.003   0.183
    1UNL     C6    9  -0.627   0.136   0.182
    1UNL     C7   10  -0.526   0.240   0.148
    1UNL     O4   11  -0.489   0.229   0.005
    1UNL     C8   12  -0.752   0.142   0.078
    1UNL     O5   13  -0.743   0.251  -0.009
    1UNL     C9   14  -0.771   0.005   0.007
    1UNL     O6   15  -0.818  -0.101   0.088
    1UNL    C10   16  -0.632  -0.034  -0.060
    1UNL     O7   17  -0.648  -0.157  -0.118
    1UNL    C11   18   0.025  -0.015  -0.133
    1UNL    C12   19   0.148   0.029  -0.061
    1UNL    C13   20   0.125   0.155   0.030
    1UNL    C14   21   0.258   0.190   0.098
    1UNL     O8   22   0.376   0.185   0.019
    1UNL    C15   23   0.429   0.053   0.040
    1UNL     O9   24   0.386  -0.041   0.103
    1UNL    C16   25   0.556   0.029  -0.032
    1UNL    C17   26   0.613  -0.090  -0.029
    1UNL    C18   27   0.731  -0.122  -0.094
    1UNL    C19   28   0.752  -0.264  -0.120
    1UNL    C20   29   0.863  -0.312  -0.183
    1UNL    C21   30   0.957  -0.224  -0.234
    1UNL    O10   31   1.070  -0.257  -0.301
    1UNL    C22   32   0.933  -0.080  -0.216
    1UNL    O11   33   1.018   0.005  -0.284
    1UNL    C23   34   0.827  -0.032  -0.141
    1UNL    C24   35   0.005   0.146   0.129
    1UNL    C25   36  -0.067   0.006   0.110
    1UNL    O12   37  -0.174  -0.006   0.209
    1UNL     H1   38  -0.232   0.101  -0.191
    1UNL     H2   39  -0.140  -0.214  -0.106
    1UNL     H3   40  -0.377  -0.217  -0.040
    1UNL     H4   41  -0.531  -0.178   0.072
    1UNL     H5   42  -0.643   0.158   0.286
    1UNL     H6   43  -0.566   0.345   0.156
    1UNL     H7   44  -0.445   0.236   0.221
    1UNL     H8   45  -0.392   0.201   0.000
    1UNL     H9   46  -0.841   0.161   0.134
    1UNL    H10   47  -0.645   0.248  -0.046
    1UNL    H11   48  -0.840   0.027  -0.074
    1UNL    H12   49  -0.747  -0.109   0.155
    1UNL    H13   50  -0.591   0.024  -0.140
    1UNL    H14   51  -0.728  -0.197  -0.080
    1UNL    H15   52   0.041  -0.131  -0.154
    1UNL    H16   53   0.021   0.019  -0.240
    1UNL    H17   54   0.227   0.041  -0.128
    1UNL    H18   55   0.185  -0.049   0.009
    1UNL    H19   56   0.098   0.236  -0.042
    1UNL    H20   57   0.277   0.125   0.182
    1UNL    H21   58   0.253   0.286   0.144
    1UNL    H22   59   0.603   0.110  -0.083
    1UNL    H23   60   0.568  -0.164   0.037
    1UNL    H24   61   0.688  -0.338  -0.078
    1UNL    H25   62   0.869  -0.415  -0.223
    1UNL    H26   63   1.109  -0.172  -0.338
    1UNL    H27   64   1.018   0.102  -0.256
    1UNL    H28   65   0.805   0.077  -0.134
    1UNL    H29   66  -0.075   0.223   0.125
    1UNL    H30   67   0.049   0.152   0.230
    1UNL    H31   68  -0.000  -0.080   0.135
    1UNL    H32   69  -0.262  -0.005   0.166
   0.00000   0.00000   0.00000   0.00000   0.00000   0.00000   0.00000   0.00000   0.00000
Generated with MDTraj, t= 59.0
 69
    1UNL     O1    1  -0.181   0.229  -0.017
    1UNL     C1    2  -0.194   0.122  -0.066
    1UNL     C2    3  -0.114   0.001  -0.038
    1UNL     C3    4  -0.201  -0.123  -0.065
    1UNL     C4    5  -0.326  -0.138  -0.018
    1UNL     O2    6  -0.396  -0.033   0.048
    1UNL     C5    7  -0.531  -0.066   0.077
    1UNL     O3    8  -0.582  -0.004   0.196
    1UNL     C6    9  -0.628   0.132   0.170
    1UNL     C7   10  -0.509   0.227   0.135
    1UNL     O4   11  -0.476   0.239  -0.004
    1UNL     C8   12  -0.756   0.139   0.077
    1UNL     O5   13  -0.748   0.255   0.000
    1UNL     C9   14  -0.762   0.000  -0.009
    1UNL     O6   15  -0.823  -0.096   0.072
    1UNL    C10   16  -0.627  -0.057  -0.045
    1UNL     O7   17  -0.629  -0.178  -0.113
    1UNL    C11   18   0.012   0.000  -0.133
    1UNL    C12   19   0.140   0.047  -0.067
    1UNL    C13   20   0.126   0.168   0.030
    1UNL    C14   21   0.259   0.202   0.091
    1UNL     O8   22   0.376   0.190   0.011
    1UNL    C15   23   0.417   0.057   0.024
    1UNL     O9   24   0.371  -0.033   0.090
    1UNL    C16   25   0.546   0.029  -0.046
    1UNL    C17   26   0.595  -0.098  -0.045
    1UNL    C18   27   0.726  -0.139  -0.106
    1UNL    C19   28   0.758  -0.277  -0.111
    1UNL    C20   29   0.868  -0.319  -0.178
    1UNL    C21   30   0.954  -0.222  -0.235
    1UNL    O10   31   1.066  -0.259  -0.305
    1UNL    C22   32   0.931  -0.079  -0.217
    1UNL    O11   33   1.029   0.010  -0.245
    1UNL    C23   34   0.816  -0.041  -0.154
    1UNL    C24   35   0.021   0.131   0.138
    1UNL    C25   36  -0.068  -0.002   0.104
    1UNL    O12   37  -0.179  -0.010   0.198
    1UNL     H1   38  -0.260   0.119  -0.150
    1UNL     H2   39  -0.163  -0.191  -0.139
    1UNL     H3   40  -0.387  -0.226  -0.059
    1UNL     H4   41  -0.513  -0.182   0.096
    1UNL     H5   42  -0.658   0.168   0.271
    1UNL     H6   43  -0.524   0.328   0.180
    1UNL     H7   44  -0.415   0.188   0.176
    1UNL     H8   45  -0.381   0.251  -0.022
    1UNL     H9   46  -0.848   0.140   0.128
    1UNL    H10   47  -0.653   0.261  -0.033
    1UNL    H11   48  -0.837   0.010  -0.090
    1UNL    H12   49  -0.773  -0.108   0.156
    1UNL    H13   50  -0.578   0.014  -0.108
    1UNL    H14   51  -0.700  -0.236  -0.078
    1UNL    H15   52   0.021  -0.101  -0.196
    1UNL    H16   53  -0.014   0.065  -0.221
    1UNL    H17   54   0.220   0.068  -0.131
    1UNL    H18   55   0.179  -0.039  -0.006
    1UNL    H19   56   0.094   0.258  -0.027
    1UNL    H20   57   0.275   0.143   0.181
    1UNL    H21   58   0.253   0.302   0.135
    1UNL    H22   59   0.585   0.110  -0.104
    1UNL    H23   60   0.544  -0.161   0.025
    1UNL    H24   61   0.680  -0.353  -0.096
    1UNL    H25   62   0.910  -0.415  -0.176
    1UNL    H26   63   1.114  -0.175  -0.325
    1UNL    H27   64   1.019   0.087  -0.185
    1UNL    H28   65   0.796   0.055  -0.122
    1UNL    H29   66  -0.050   0.214   0.152
    1UNL    H30   67   0.063   0.111   0.239
    1UNL    H31   68  -0.013  -0.100   0.125
    1UNL    H32   69  -0.262   0.016   0.156
   0.00000   0.00000   0.00000   0.00000   0.00000   0.00000   0.00000   0.00000   0.00000
Generated with MDTraj, t= 60.0
 69
    1UNL     O1    1  -0.187   0.248  -0.030
    1UNL     C1    2  -0.202   0.136  -0.076
    1UNL     C2    3  -0.122   0.013  -0.043
    1UNL     C3    4  -0.212  -0.108  -0.068
    1UNL     C4    5  -0.339  -0.125  -0.024
    1UNL     O2    6  -0.387  -0.038   0.076
    1UNL     C5    7  -0.525  -0.068   0.088
    1UNL     O3    8  -0.596  -0.005   0.198
    1UNL     C6    9  -0.643   0.128   0.176
    1UNL     C7   10  -0.526   0.224   0.152
    1UNL     O4   11  -0.480   0.216   0.019
    1UNL     C8   12  -0.752   0.131   0.071
    1UNL     O5   13  -0.733   0.248  -0.008
    1UNL     C9   14  -0.760  -0.006  -0.014
    1UNL     O6   15  -0.828  -0.105   0.068
    1UNL    C10   16  -0.609  -0.048  -0.044
    1UNL     O7   17  -0.617  -0.170  -0.127
    1UNL    C11   18   0.007   0.005  -0.134
    1UNL    C12   19   0.143   0.032  -0.062
    1UNL    C13   20   0.123   0.159   0.031
    1UNL    C14   21   0.263   0.212   0.084
    1UNL     O8   22   0.374   0.178  -0.003
    1UNL    C15   23   0.426   0.054   0.028
    1UNL     O9   24   0.375  -0.025   0.102
    1UNL    C16   25   0.544   0.021  -0.049
    1UNL    C17   26   0.597  -0.103  -0.048
    1UNL    C18   27   0.715  -0.141  -0.118
    1UNL    C19   28   0.745  -0.274  -0.141
    1UNL    C20   29   0.865  -0.314  -0.198
    1UNL    C21   30   0.965  -0.217  -0.229
    1UNL    O10   31   1.091  -0.267  -0.263
    1UNL    C22   32   0.937  -0.084  -0.209
    1UNL    O11   33   1.030   0.010  -0.258
    1UNL    C23   34   0.818  -0.052  -0.155
    1UNL    C24   35   0.017   0.134   0.137
    1UNL    C25   36  -0.070   0.009   0.105
    1UNL    O12   37  -0.169  -0.000   0.206
    1UNL     H1   38  -0.282   0.128  -0.148
    1UNL     H2   39  -0.165  -0.193  -0.113
    1UNL     H3   40  -0.395  -0.217  -0.053
    1UNL     H4   41  -0.520  -0.185   0.109
    1UNL     H5   42  -0.689   0.162   0.275
    1UNL     H6   43  -0.558   0.330   0.151
    1UNL     H7   44  -0.440   0.209   0.220
    1UNL     H8   45  -0.388   0.252   0.008
    1UNL     H9   46  -0.845   0.154   0.114
    1UNL    H10   47  -0.646   0.259  -0.033
    1UNL    H11   48  -0.809   0.010  -0.113
    1UNL    H12   49  -0.788  -0.096   0.158
    1UNL    H13   50  -0.569   0.026  -0.112
    1UNL    H14   51  -0.679  -0.233  -0.084
    1UNL    H15   52   0.000  -0.084  -0.207
    1UNL    H16   53  -0.012   0.086  -0.212
    1UNL    H17   54   0.214   0.056  -0.136
    1UNL    H18   55   0.182  -0.056  -0.007
    1UNL    H19   56   0.084   0.246  -0.025
    1UNL    H20   57   0.273   0.167   0.184
    1UNL    H21   58   0.265   0.322   0.108
    1UNL    H22   59   0.584   0.096  -0.115
    1UNL    H23   60   0.537  -0.173   0.008
    1UNL    H24   61   0.665  -0.341  -0.126
    1UNL    H25   62   0.887  -0.420  -0.227
    1UNL    H26   63   1.150  -0.198  -0.294
    1UNL    H27   64   1.017   0.096  -0.220
    1UNL    H28   65   0.802   0.055  -0.127
    1UNL    H29   66  -0.050   0.219   0.157
    1UNL    H30   67   0.069   0.110   0.233
    1UNL    H31   68  -0.004  -0.083   0.117
    1UNL    H32   69  -0.254  -0.020   0.159
   0.00000   0.00000   0.00000   0.00000   0.00000   0.00000   0.00000   0.00000   0.00000
Generated with MDTraj, t= 61.0
 69
    1UNL     O1    1  -0.222   0.212   0.003
    1UNL     C1    2  -0.188   0.127  -0.074
    1UNL     C2    3  -0.109   0.007  -0.026
    1UNL     C3    4  -0.198  -0.106  -0.045
    1UNL     C4    5  -0.330  -0.121  -0.012
    1UNL     O2    6  -0.400  -0.027   0.068
    1UNL     C5    7  -0.541  -0.066   0.078
    1UNL     O3    8  -0.601  -0.019   0.198
    1UNL     C6    9  -0.652   0.116   0.183
    1UNL     C7   10  -0.531   0.218   0.163
    1UNL     O4   11  -0.498   0.231   0.024
    1UNL     C8   12  -0.760   0.128   0.075
    1UNL     O5   13  -0.745   0.244  -0.011
    1UNL     C9   14  -0.765   0.000  -0.018
    1UNL     O6   15  -0.827  -0.109   0.048
    1UNL    C10   16  -0.621  -0.039  -0.046
    1UNL     O7   17  -0.617  -0.154  -0.140
    1UNL    C11   18   0.008  -0.020  -0.126
    1UNL    C12   19   0.144   0.040  -0.077
    1UNL    C13   20   0.131   0.170   0.019
    1UNL    C14   21   0.265   0.200   0.095
    1UNL     O8   22   0.372   0.179   0.006
    1UNL    C15   23   0.433   0.053   0.011
    1UNL     O9   24   0.385  -0.027   0.084
    1UNL    C16   25   0.549   0.023  -0.070
    1UNL    C17   26   0.598  -0.102  -0.078
    1UNL    C18   27   0.722  -0.138  -0.127
    1UNL    C19   28   0.751  -0.275  -0.138
    1UNL    C20   29   0.876  -0.319  -0.178
    1UNL    C21   30   0.973  -0.227  -0.219
    1UNL    O10   31   1.087  -0.269  -0.277
    1UNL    C22   32   0.944  -0.088  -0.210
    1UNL    O11   33   1.040   0.002  -0.243
    1UNL    C23   34   0.821  -0.048  -0.160
    1UNL    C24   35   0.021   0.150   0.125
    1UNL    C25   36  -0.061   0.027   0.122
    1UNL    O12   37  -0.162   0.037   0.217
    1UNL     H1   38  -0.250   0.117  -0.169
    1UNL     H2   39  -0.161  -0.182  -0.114
    1UNL     H3   40  -0.377  -0.205  -0.040
    1UNL     H4   41  -0.524  -0.180   0.104
    1UNL     H5   42  -0.705   0.138   0.284
    1UNL     H6   43  -0.557   0.322   0.184
    1UNL     H7   44  -0.437   0.188   0.217
    1UNL     H8   45  -0.401   0.223   0.006
    1UNL     H9   46  -0.855   0.127   0.123
    1UNL    H10   47  -0.659   0.240  -0.049
    1UNL    H11   48  -0.814   0.010  -0.119
    1UNL    H12   49  -0.773  -0.126   0.129
    1UNL    H13   50  -0.577   0.050  -0.095
    1UNL    H14   51  -0.669  -0.228  -0.104
    1UNL    H15   52   0.006  -0.122  -0.168
    1UNL    H16   53  -0.029   0.033  -0.224
    1UNL    H17   54   0.206   0.063  -0.163
    1UNL    H18   55   0.192  -0.040  -0.022
    1UNL    H19   56   0.107   0.265  -0.032
    1UNL    H20   57   0.273   0.135   0.184
    1UNL    H21   58   0.265   0.305   0.138
    1UNL    H22   59   0.606   0.107  -0.100
    1UNL    H23   60   0.527  -0.178  -0.053
    1UNL    H24   61   0.668  -0.342  -0.109
    1UNL    H25   62   0.878  -0.418  -0.213
    1UNL    H26   63   1.158  -0.199  -0.294
    1UNL    H27   64   1.016   0.086  -0.204
    1UNL    H28   65   0.799   0.055  -0.171
    1UNL    H29   66  -0.056   0.229   0.112
    1UNL    H30   67   0.063   0.170   0.227
    1UNL    H31   68   0.005  -0.060   0.148
    1UNL    H32   69  -0.253   0.009   0.182
   0.00000   0.00000   0.00000   0.00000   0.00000   0.00000   0.00000   0.00000   0.00000
Generated with MDTraj, t= 62.0
 69
    1UNL     O1    1  -0.235   0.209  -0.000
    1UNL     C1    2  -0.199   0.117  -0.065
    1UNL     C2    3  -0.106   0.005  -0.022
    1UNL     C3    4  -0.188  -0.125  -0.025
    1UNL     C4    5  -0.313  -0.135   0.023
    1UNL     O2    6  -0.397  -0.026   0.053
    1UNL     C5    7  -0.536  -0.067   0.074
    1UNL     O3    8  -0.606  -0.016   0.191
    1UNL     C6    9  -0.666   0.122   0.185
    1UNL     C7   10  -0.565   0.229   0.156
    1UNL     O4   11  -0.528   0.227   0.019
    1UNL     C8   12  -0.783   0.119   0.089
    1UNL     O5   13  -0.804   0.246   0.014
    1UNL     C9   14  -0.770   0.007  -0.023
    1UNL     O6   15  -0.834  -0.113   0.020
    1UNL    C10   16  -0.620  -0.025  -0.054
    1UNL     O7   17  -0.621  -0.139  -0.143
    1UNL    C11   18   0.022   0.002  -0.122
    1UNL    C12   19   0.151   0.020  -0.044
    1UNL    C13   20   0.143   0.162   0.019
    1UNL    C14   21   0.276   0.193   0.087
    1UNL     O8   22   0.389   0.187   0.009
    1UNL    C15   23   0.430   0.058  -0.000
    1UNL     O9   24   0.368  -0.030   0.053
    1UNL    C16   25   0.566   0.038  -0.062
    1UNL    C17   26   0.617  -0.093  -0.061
    1UNL    C18   27   0.735  -0.147  -0.128
    1UNL    C19   28   0.760  -0.282  -0.137
    1UNL    C20   29   0.880  -0.317  -0.192
    1UNL    C21   30   0.983  -0.234  -0.230
    1UNL    O10   31   1.113  -0.274  -0.273
    1UNL    C22   32   0.956  -0.095  -0.225
    1UNL    O11   33   1.062  -0.010  -0.255
    1UNL    C23   34   0.835  -0.053  -0.167
    1UNL    C24   35   0.029   0.161   0.127
    1UNL    C25   36  -0.064   0.040   0.128
    1UNL    O12   37  -0.168   0.042   0.227
    1UNL     H1   38  -0.252   0.095  -0.150
    1UNL     H2   39  -0.141  -0.209  -0.072
    1UNL     H3   40  -0.373  -0.230   0.006
    1UNL     H4   41  -0.536  -0.186   0.076
    1UNL     H5   42  -0.699   0.137   0.296
    1UNL     H6   43  -0.608   0.327   0.168
    1UNL     H7   44  -0.470   0.211   0.217
    1UNL     H8   45  -0.433   0.204   0.010
    1UNL     H9   46  -0.873   0.099   0.146
    1UNL    H10   47  -0.712   0.283  -0.022
    1UNL    H11   48  -0.831   0.051  -0.106
    1UNL    H12   49  -0.794  -0.133   0.107
    1UNL    H13   50  -0.578   0.062  -0.108
    1UNL    H14   51  -0.675  -0.207  -0.098
    1UNL    H15   52   0.020  -0.088  -0.181
    1UNL    H16   53  -0.002   0.074  -0.214
    1UNL    H17   54   0.236   0.015  -0.115
    1UNL    H18   55   0.161  -0.062   0.026
    1UNL    H19   56   0.117   0.234  -0.059
    1UNL    H20   57   0.284   0.134   0.181
    1UNL    H21   58   0.270   0.299   0.128
    1UNL    H22   59   0.616   0.111  -0.123
    1UNL    H23   60   0.562  -0.152   0.011
    1UNL    H24   61   0.700  -0.353  -0.092
    1UNL    H25   62   0.907  -0.424  -0.203
    1UNL    H26   63   1.150  -0.196  -0.315
    1UNL    H27   64   1.042   0.083  -0.232
    1UNL    H28   65   0.821   0.051  -0.145
    1UNL    H29   66  -0.024   0.257   0.115
    1UNL    H30   67   0.080   0.159   0.226
    1UNL    H31   68  -0.007  -0.049   0.161
    1UNL    H32   69  -0.249   0.070   0.183
   0.00000   0.00000   0.00000   0.00000   0.00000   0.00000   0.00000   0.00000   0.00000
Generated with MDTraj, t= 63.0
 69
    1UNL     O1    1  -0.243   0.223  -0.009
    1UNL     C1    2  -0.218   0.118  -0.065
    1UNL     C2    3  -0.129   0.014  -0.012
    1UNL     C3    4  -0.194  -0.123  -0.007
    1UNL     C4    5  -0.323  -0.131   0.023
    1UNL     O2    6  -0.408  -0.028   0.061
    1UNL     C5    7  -0.546  -0.059   0.075
    1UNL     O3    8  -0.607  -0.011   0.195
    1UNL     C6    9  -0.672   0.118   0.187
    1UNL     C7   10  -0.567   0.226   0.156
    1UNL     O4   11  -0.538   0.239   0.011
    1UNL     C8   12  -0.796   0.102   0.086
    1UNL     O5   13  -0.825   0.235   0.028
    1UNL     C9   14  -0.768  -0.001  -0.022
    1UNL     O6   15  -0.824  -0.126   0.006
    1UNL    C10   16  -0.621  -0.017  -0.049
    1UNL     O7   17  -0.605  -0.113  -0.153
    1UNL    C11   18  -0.009   0.004  -0.113
    1UNL    C12   19   0.131   0.037  -0.060
    1UNL    C13   20   0.134   0.161   0.025
    1UNL    C14   21   0.268   0.162   0.087
    1UNL     O8   22   0.376   0.163   0.002
    1UNL    C15   23   0.449   0.040   0.017
    1UNL     O9   24   0.421  -0.052   0.090
    1UNL    C16   25   0.581   0.028  -0.058
    1UNL    C17   26   0.634  -0.097  -0.073
    1UNL    C18   27   0.757  -0.134  -0.127
    1UNL    C19   28   0.782  -0.272  -0.138
    1UNL    C20   29   0.902  -0.323  -0.185
    1UNL    C21   30   1.000  -0.240  -0.232
    1UNL    O10   31   1.119  -0.278  -0.294
    1UNL    C22   32   0.976  -0.097  -0.222
    1UNL    O11   33   1.073  -0.022  -0.274
    1UNL    C23   34   0.854  -0.044  -0.176
    1UNL    C24   35   0.013   0.174   0.126
    1UNL    C25   36  -0.078   0.052   0.128
    1UNL    O12   37  -0.182   0.077   0.220
    1UNL     H1   38  -0.266   0.104  -0.165
    1UNL     H2   39  -0.129  -0.208  -0.008
    1UNL     H3   40  -0.364  -0.232   0.047
    1UNL     H4   41  -0.545  -0.178   0.078
    1UNL     H5   42  -0.713   0.144   0.293
    1UNL     H6   43  -0.609   0.317   0.187
    1UNL     H7   44  -0.472   0.201   0.216
    1UNL     H8   45  -0.439   0.253   0.001
    1UNL     H9   46  -0.883   0.064   0.143
    1UNL    H10   47  -0.751   0.259  -0.027
    1UNL    H11   48  -0.821   0.025  -0.116
    1UNL    H12   49  -0.818  -0.155   0.101
    1UNL    H13   50  -0.563   0.072  -0.085
    1UNL    H14   51  -0.655  -0.195  -0.133
    1UNL    H15   52  -0.016  -0.099  -0.142
    1UNL    H16   53  -0.028   0.053  -0.217
    1UNL    H17   54   0.194   0.056  -0.151
    1UNL    H18   55   0.167  -0.048  -0.007
    1UNL    H19   56   0.136   0.246  -0.044
    1UNL    H20   57   0.283   0.091   0.168
    1UNL    H21   58   0.278   0.263   0.136
    1UNL    H22   59   0.636   0.113  -0.092
    1UNL    H23   60   0.563  -0.172  -0.040
    1UNL    H24   61   0.702  -0.348  -0.118
    1UNL    H25   62   0.930  -0.424  -0.172
    1UNL    H26   63   1.176  -0.196  -0.292
    1UNL    H27   64   1.049   0.074  -0.256
    1UNL    H28   65   0.847   0.065  -0.150
    1UNL    H29   66  -0.052   0.256   0.090
    1UNL    H30   67   0.056   0.197   0.227
    1UNL    H31   68  -0.031  -0.036   0.173
    1UNL    H32   69  -0.262   0.037   0.177
   0.00000   0.00000   0.00000   0.00000   0.00000   0.00000   0.00000   0.00000   0.00000
Generated with MDTraj, t= 64.0
 69
    1UNL     O1    1  -0.264   0.242  -0.034
    1UNL     C1    2  -0.243   0.131  -0.070
    1UNL     C2    3  -0.144   0.027  -0.022
    1UNL     C3    4  -0.204  -0.115  -0.003
    1UNL     C4    5  -0.333  -0.129   0.031
    1UNL     O2    6  -0.413  -0.031   0.085
    1UNL     C5    7  -0.550  -0.066   0.083
    1UNL     O3    8  -0.623  -0.025   0.204
    1UNL     C6    9  -0.684   0.106   0.187
    1UNL     C7   10  -0.582   0.212   0.175
    1UNL     O4   11  -0.538   0.239   0.039
    1UNL     C8   12  -0.793   0.109   0.070
    1UNL     O5   13  -0.800   0.241   0.009
    1UNL     C9   14  -0.771  -0.003  -0.032
    1UNL     O6   15  -0.828  -0.126   0.013
    1UNL    C10   16  -0.614  -0.021  -0.049
    1UNL     O7   17  -0.594  -0.114  -0.153
    1UNL    C11   18  -0.029   0.018  -0.131
    1UNL    C12   19   0.113   0.017  -0.068
    1UNL    C13   20   0.147   0.148   0.020
    1UNL    C14   21   0.281   0.154   0.093
    1UNL     O8   22   0.394   0.147   0.010
    1UNL    C15   23   0.461   0.027   0.036
    1UNL     O9   24   0.433  -0.064   0.111
    1UNL    C16   25   0.573   0.001  -0.056
    1UNL    C17   26   0.655  -0.106  -0.039
    1UNL    C18   27   0.766  -0.149  -0.118
    1UNL    C19   28   0.797  -0.287  -0.133
    1UNL    C20   29   0.917  -0.328  -0.193
    1UNL    C21   30   1.004  -0.228  -0.236
    1UNL    O10   31   1.122  -0.257  -0.296
    1UNL    C22   32   0.975  -0.087  -0.230
    1UNL    O11   33   1.066  -0.003  -0.290
    1UNL    C23   34   0.856  -0.056  -0.173
    1UNL    C24   35   0.023   0.188   0.100
    1UNL    C25   36  -0.079   0.071   0.114
    1UNL    O12   37  -0.178   0.103   0.206
    1UNL     H1   38  -0.301   0.098  -0.157
    1UNL     H2   39  -0.136  -0.198  -0.025
    1UNL     H3   40  -0.369  -0.223   0.035
    1UNL     H4   41  -0.551  -0.185   0.085
    1UNL     H5   42  -0.736   0.138   0.283
    1UNL     H6   43  -0.615   0.300   0.223
    1UNL     H7   44  -0.500   0.167   0.243
    1UNL     H8   45  -0.440   0.231   0.025
    1UNL     H9   46  -0.895   0.095   0.116
    1UNL    H10   47  -0.707   0.269   0.004
    1UNL    H11   48  -0.815   0.034  -0.125
    1UNL    H12   49  -0.814  -0.132   0.109
    1UNL    H13   50  -0.562   0.072  -0.080
    1UNL    H14   51  -0.640  -0.192  -0.117
    1UNL    H15   52  -0.043  -0.067  -0.197
    1UNL    H16   53  -0.041   0.095  -0.207
    1UNL    H17   54   0.183   0.016  -0.156
    1UNL    H18   55   0.120  -0.074  -0.014
    1UNL    H19   56   0.166   0.223  -0.058
    1UNL    H20   57   0.296   0.084   0.172
    1UNL    H21   58   0.284   0.249   0.150
    1UNL    H22   59   0.594   0.074  -0.129
    1UNL    H23   60   0.598  -0.181   0.015
    1UNL    H24   61   0.724  -0.349  -0.091
    1UNL    H25   62   0.944  -0.435  -0.202
    1UNL    H26   63   1.153  -0.175  -0.338
    1UNL    H27   64   1.045   0.095  -0.273
    1UNL    H28   65   0.844   0.045  -0.168
    1UNL    H29   66  -0.025   0.278   0.057
    1UNL    H30   67   0.063   0.210   0.202
    1UNL    H31   68  -0.031  -0.013   0.161
    1UNL    H32   69  -0.266   0.084   0.167
   0.00000   0.00000   0.00000   0.00000   0.00000   0.00000   0.00000   0.00000   0.00000
Generated with MDTraj, t= 65.0
 69
    1UNL     O1    1  -0.253   0.259  -0.039
    1UNL     C1    2  -0.245   0.146  -0.077
    1UNL     C2    3  -0.147   0.037  -0.028
    1UNL     C3    4  -0.206  -0.100  -0.008
    1UNL     C4    5  -0.326  -0.126   0.048
    1UNL     O2    6  -0.415  -0.032   0.098
    1UNL     C5    7  -0.548  -0.069   0.087
    1UNL     O3    8  -0.629  -0.029   0.199
    1UNL     C6    9  -0.680   0.108   0.184
    1UNL     C7   10  -0.565   0.206   0.176
    1UNL     O4   11  -0.525   0.231   0.041
    1UNL     C8   12  -0.785   0.120   0.068
    1UNL     O5   13  -0.784   0.247   0.010
    1UNL     C9   14  -0.756   0.003  -0.033
    1UNL     O6   15  -0.823  -0.117   0.009
    1UNL    C10   16  -0.607  -0.034  -0.045
    1UNL     O7   17  -0.592  -0.141  -0.135
    1UNL    C11   18  -0.032   0.029  -0.140
    1UNL    C12   19   0.110   0.030  -0.080
    1UNL    C13   20   0.146   0.168   0.003
    1UNL    C14   21   0.272   0.148   0.085
    1UNL     O8   22   0.384   0.106   0.001
    1UNL    C15   23   0.450  -0.001   0.043
    1UNL     O9   24   0.414  -0.088   0.116
    1UNL    C16   25   0.575  -0.021  -0.026
    1UNL    C17   26   0.646  -0.139  -0.028
    1UNL    C18   27   0.772  -0.166  -0.101
    1UNL    C19   28   0.825  -0.291  -0.116
    1UNL    C20   29   0.944  -0.318  -0.175
    1UNL    C21   30   1.006  -0.212  -0.245
    1UNL    O10   31   1.114  -0.232  -0.327
    1UNL    C22   32   0.959  -0.082  -0.235
    1UNL    O11   33   1.039   0.014  -0.293
    1UNL    C23   34   0.847  -0.059  -0.158
    1UNL    C24   35   0.022   0.197   0.093
    1UNL    C25   36  -0.089   0.084   0.106
    1UNL    O12   37  -0.189   0.114   0.197
    1UNL     H1   38  -0.312   0.122  -0.151
    1UNL     H2   39  -0.148  -0.179  -0.050
    1UNL     H3   40  -0.363  -0.229   0.019
    1UNL     H4   41  -0.551  -0.189   0.073
    1UNL     H5   42  -0.729   0.128   0.279
    1UNL     H6   43  -0.602   0.295   0.217
    1UNL     H7   44  -0.484   0.165   0.247
    1UNL     H8   45  -0.431   0.250   0.026
    1UNL     H9   46  -0.891   0.087   0.100
    1UNL    H10   47  -0.688   0.265  -0.028
    1UNL    H11   48  -0.801   0.023  -0.129
    1UNL    H12   49  -0.774  -0.147   0.089
    1UNL    H13   50  -0.547   0.048  -0.092
    1UNL    H14   51  -0.651  -0.211  -0.100
    1UNL    H15   52  -0.051  -0.043  -0.220
    1UNL    H16   53  -0.042   0.116  -0.193
    1UNL    H17   54   0.185   0.014  -0.161
    1UNL    H18   55   0.107  -0.051  -0.013
    1UNL    H19   56   0.172   0.243  -0.073
    1UNL    H20   57   0.247   0.072   0.153
    1UNL    H21   58   0.311   0.228   0.148
    1UNL    H22   59   0.593   0.064  -0.093
    1UNL    H23   60   0.597  -0.218   0.026
    1UNL    H24   61   0.784  -0.362  -0.043
    1UNL    H25   62   0.982  -0.415  -0.188
    1UNL    H26   63   1.140  -0.143  -0.359
    1UNL    H27   64   0.997   0.100  -0.261
    1UNL    H28   65   0.806   0.046  -0.159
    1UNL    H29   66  -0.028   0.287   0.052
    1UNL    H30   67   0.050   0.226   0.196
    1UNL    H31   68  -0.037  -0.001   0.148
    1UNL    H32   69  -0.281   0.087   0.166
   0.00000   0.00000   0.00000   0.00000   0.00000   0.00000   0.00000   0.00000   0.00000
Generated with MDTraj, t= 66.0
 69
    1UNL     O1    1  -0.237   0.258  -0.046
    1UNL     C1    2  -0.247   0.139  -0.070
    1UNL     C2    3  -0.141   0.041  -0.033
    1UNL     C3    4  -0.199  -0.094  -0.035
    1UNL     C4    5  -0.317  -0.125   0.020
    1UNL     O2    6  -0.405  -0.039   0.094
    1UNL     C5    7  -0.544  -0.073   0.096
    1UNL     O3    8  -0.614  -0.010   0.213
    1UNL     C6    9  -0.656   0.127   0.187
    1UNL     C7   10  -0.543   0.224   0.150
    1UNL     O4   11  -0.517   0.227   0.009
    1UNL     C8   12  -0.771   0.117   0.085
    1UNL     O5   13  -0.785   0.234   0.008
    1UNL     C9   14  -0.755  -0.001  -0.021
    1UNL     O6   15  -0.835  -0.118   0.007
    1UNL    C10   16  -0.604  -0.037  -0.036
    1UNL     O7   17  -0.581  -0.146  -0.120
    1UNL    C11   18  -0.030   0.055  -0.147
    1UNL    C12   19   0.111   0.042  -0.100
    1UNL    C13   20   0.144   0.167   0.004
    1UNL    C14   21   0.260   0.111   0.089
    1UNL     O8   22   0.381   0.091   0.018
    1UNL    C15   23   0.441  -0.030   0.036
    1UNL     O9   24   0.396  -0.115   0.108
    1UNL    C16   25   0.564  -0.044  -0.039
    1UNL    C17   26   0.644  -0.145  -0.011
    1UNL    C18   27   0.767  -0.159  -0.077
    1UNL    C19   28   0.824  -0.285  -0.102
    1UNL    C20   29   0.942  -0.303  -0.168
    1UNL    C21   30   1.001  -0.203  -0.238
    1UNL    O10   31   1.111  -0.209  -0.323
    1UNL    C22   32   0.938  -0.077  -0.230
    1UNL    O11   33   0.990   0.027  -0.305
    1UNL    C23   34   0.829  -0.052  -0.150
    1UNL    C24   35   0.021   0.198   0.090
    1UNL    C25   36  -0.077   0.080   0.108
    1UNL    O12   37  -0.177   0.112   0.200
    1UNL     H1   38  -0.341   0.101  -0.123
    1UNL     H2   39  -0.137  -0.171  -0.083
    1UNL     H3   40  -0.333  -0.238   0.021
    1UNL     H4   41  -0.545  -0.190   0.117
    1UNL     H5   42  -0.688   0.170   0.279
    1UNL     H6   43  -0.574   0.320   0.179
    1UNL     H7   44  -0.448   0.198   0.210
    1UNL     H8   45  -0.428   0.270  -0.007
    1UNL     H9   46  -0.870   0.107   0.146
    1UNL    H10   47  -0.695   0.265  -0.031
    1UNL    H11   48  -0.788   0.037  -0.118
    1UNL    H12   49  -0.828  -0.128   0.106
    1UNL    H13   50  -0.537   0.048  -0.067
    1UNL    H14   51  -0.644  -0.216  -0.091
    1UNL    H15   52  -0.054  -0.003  -0.235
    1UNL    H16   53  -0.045   0.148  -0.184
    1UNL    H17   54   0.181   0.042  -0.184
    1UNL    H18   55   0.121  -0.053  -0.049
    1UNL    H19   56   0.181   0.257  -0.047
    1UNL    H20   57   0.240   0.013   0.124
    1UNL    H21   58   0.281   0.167   0.180
    1UNL    H22   59   0.564   0.008  -0.130
    1UNL    H23   60   0.626  -0.197   0.083
    1UNL    H24   61   0.777  -0.366  -0.050
    1UNL    H25   62   0.997  -0.397  -0.155
    1UNL    H26   63   1.126  -0.118  -0.360
    1UNL    H27   64   0.947   0.110  -0.277
    1UNL    H28   65   0.794   0.050  -0.144
    1UNL    H29   66  -0.036   0.291   0.070
    1UNL    H30   67   0.058   0.218   0.192
    1UNL    H31   68  -0.022  -0.006   0.147
    1UNL    H32   69  -0.258   0.071   0.165
   0.00000   0.00000   0.00000   0.00000   0.00000   0.00000   0.00000   0.00000   0.00000
Generated with MDTraj, t= 67.0
 69
    1UNL     O1    1  -0.248   0.256  -0.056
    1UNL     C1    2  -0.242   0.143  -0.090
    1UNL     C2    3  -0.139   0.040  -0.049
    1UNL     C3    4  -0.199  -0.097  -0.056
    1UNL     C4    5  -0.321  -0.125  -0.002
    1UNL     O2    6  -0.390  -0.027   0.082
    1UNL     C5    7  -0.523  -0.058   0.093
    1UNL     O3    8  -0.595   0.002   0.209
    1UNL     C6    9  -0.650   0.133   0.186
    1UNL     C7   10  -0.543   0.244   0.140
    1UNL     O4   11  -0.523   0.247  -0.004
    1UNL     C8   12  -0.764   0.117   0.091
    1UNL     O5   13  -0.789   0.235   0.012
    1UNL     C9   14  -0.747  -0.005  -0.009
    1UNL     O6   15  -0.799  -0.123   0.048
    1UNL    C10   16  -0.601  -0.036  -0.039
    1UNL     O7   17  -0.589  -0.155  -0.115
    1UNL    C11   18  -0.022   0.058  -0.155
    1UNL    C12   19   0.118   0.051  -0.101
    1UNL    C13   20   0.140   0.156   0.016
    1UNL    C14   21   0.246   0.101   0.105
    1UNL     O8   22   0.373   0.085   0.044
    1UNL    C15   23   0.425  -0.042   0.050
    1UNL     O9   24   0.360  -0.131   0.106
    1UNL    C16   25   0.560  -0.045  -0.022
    1UNL    C17   26   0.636  -0.156  -0.021
    1UNL    C18   27   0.758  -0.173  -0.091
    1UNL    C19   28   0.839  -0.285  -0.081
    1UNL    C20   29   0.958  -0.297  -0.157
    1UNL    C21   30   1.009  -0.192  -0.235
    1UNL    O10   31   1.114  -0.198  -0.318
    1UNL    C22   32   0.931  -0.067  -0.234
    1UNL    O11   33   0.979   0.039  -0.315
    1UNL    C23   34   0.806  -0.064  -0.173
    1UNL    C24   35   0.016   0.195   0.104
    1UNL    C25   36  -0.078   0.075   0.100
    1UNL    O12   37  -0.177   0.085   0.205
    1UNL     H1   38  -0.324   0.110  -0.147
    1UNL     H2   39  -0.139  -0.170  -0.106
    1UNL     H3   40  -0.363  -0.217  -0.005
    1UNL     H4   41  -0.538  -0.176   0.106
    1UNL     H5   42  -0.683   0.166   0.279
    1UNL     H6   43  -0.570   0.342   0.163
    1UNL     H7   44  -0.444   0.226   0.195
    1UNL     H8   45  -0.431   0.257  -0.029
    1UNL     H9   46  -0.853   0.101   0.167
    1UNL    H10   47  -0.711   0.249  -0.033
    1UNL    H11   48  -0.800   0.010  -0.105
    1UNL    H12   49  -0.781  -0.127   0.145
    1UNL    H13   50  -0.552   0.043  -0.101
    1UNL    H14   51  -0.649  -0.226  -0.085
    1UNL    H15   52  -0.045  -0.004  -0.240
    1UNL    H16   53  -0.032   0.150  -0.205
    1UNL    H17   54   0.197   0.062  -0.175
    1UNL    H18   55   0.131  -0.052  -0.061
    1UNL    H19   56   0.179   0.252  -0.024
    1UNL    H20   57   0.214   0.011   0.157
    1UNL    H21   58   0.276   0.182   0.177
    1UNL    H22   59   0.588   0.043  -0.079
    1UNL    H23   60   0.607  -0.228   0.054
    1UNL    H24   61   0.802  -0.368  -0.022
    1UNL    H25   62   1.035  -0.367  -0.130
    1UNL    H26   63   1.103  -0.117  -0.370
    1UNL    H27   64   0.940   0.125  -0.301
    1UNL    H28   65   0.753   0.025  -0.180
    1UNL    H29   66  -0.035   0.288   0.069
    1UNL    H30   67   0.036   0.221   0.208
    1UNL    H31   68  -0.020  -0.014   0.129
    1UNL    H32   69  -0.263   0.055   0.161
   0.00000   0.00000   0.00000   0.00000   0.00000   0.00000   0.00000   0.00000   0.00000
Generated with MDTraj, t= 68.0
 69
    1UNL     O1    1  -0.222   0.264  -0.056
    1UNL     C1    2  -0.229   0.154  -0.101
    1UNL     C2    3  -0.127   0.047  -0.052
    1UNL     C3    4  -0.194  -0.093  -0.058
    1UNL     C4    5  -0.320  -0.116  -0.019
    1UNL     O2    6  -0.393  -0.020   0.059
    1UNL     C5    7  -0.527  -0.064   0.081
    1UNL     O3    8  -0.575   0.005   0.200
    1UNL     C6    9  -0.649   0.127   0.182
    1UNL     C7   10  -0.552   0.242   0.139
    1UNL     O4   11  -0.518   0.239   0.001
    1UNL     C8   12  -0.773   0.110   0.099
    1UNL     O5   13  -0.786   0.227   0.002
    1UNL     C9   14  -0.770  -0.024   0.008
    1UNL     O6   15  -0.803  -0.127   0.102
    1UNL    C10   16  -0.626  -0.040  -0.037
    1UNL     O7   17  -0.618  -0.140  -0.133
    1UNL    C11   18  -0.005   0.056  -0.155
    1UNL    C12   19   0.130   0.038  -0.085
    1UNL    C13   20   0.157   0.140   0.028
    1UNL    C14   21   0.259   0.098   0.126
    1UNL     O8   22   0.383   0.100   0.070
    1UNL    C15   23   0.428  -0.028   0.051
    1UNL     O9   24   0.366  -0.134   0.074
    1UNL    C16   25   0.564  -0.039  -0.010
    1UNL    C17   26   0.622  -0.161  -0.029
    1UNL    C18   27   0.748  -0.168  -0.102
    1UNL    C19   28   0.828  -0.284  -0.094
    1UNL    C20   29   0.955  -0.292  -0.138
    1UNL    C21   30   0.999  -0.188  -0.222
    1UNL    O10   31   1.132  -0.189  -0.279
    1UNL    C22   32   0.918  -0.070  -0.246
    1UNL    O11   33   0.959   0.028  -0.334
    1UNL    C23   34   0.792  -0.061  -0.184
    1UNL    C24   35   0.031   0.175   0.105
    1UNL    C25   36  -0.074   0.064   0.096
    1UNL    O12   37  -0.187   0.103   0.181
    1UNL     H1   38  -0.286   0.130  -0.188
    1UNL     H2   39  -0.144  -0.180  -0.101
    1UNL     H3   40  -0.376  -0.193  -0.076
    1UNL     H4   41  -0.526  -0.179   0.110
    1UNL     H5   42  -0.686   0.153   0.277
    1UNL     H6   43  -0.602   0.331   0.153
    1UNL     H7   44  -0.454   0.246   0.197
    1UNL     H8   45  -0.419   0.251  -0.012
    1UNL     H9   46  -0.875   0.107   0.158
    1UNL    H10   47  -0.698   0.254  -0.033
    1UNL    H11   48  -0.849  -0.017  -0.073
    1UNL    H12   49  -0.732  -0.129   0.168
    1UNL    H13   50  -0.590   0.061  -0.073
    1UNL    H14   51  -0.658  -0.219  -0.091
    1UNL    H15   52  -0.018  -0.023  -0.222
    1UNL    H16   53  -0.010   0.142  -0.223
    1UNL    H17   54   0.206   0.053  -0.161
    1UNL    H18   55   0.144  -0.068  -0.047
    1UNL    H19   56   0.187   0.240  -0.012
    1UNL    H20   57   0.245  -0.002   0.172
    1UNL    H21   58   0.272   0.183   0.202
    1UNL    H22   59   0.624   0.050  -0.002
    1UNL    H23   60   0.556  -0.244  -0.008
    1UNL    H24   61   0.798  -0.377  -0.046
    1UNL    H25   62   1.020  -0.376  -0.113
    1UNL    H26   63   1.128  -0.106  -0.336
    1UNL    H27   64   0.895   0.098  -0.332
    1UNL    H28   65   0.723   0.022  -0.214
    1UNL    H29   66  -0.015   0.269   0.065
    1UNL    H30   67   0.050   0.205   0.208
    1UNL    H31   68  -0.037  -0.036   0.131
    1UNL    H32   69  -0.273   0.079   0.136
   0.00000   0.00000   0.00000   0.00000   0.00000   0.00000   0.00000   0.00000   0.00000
Generated with MDTraj, t= 69.0
 69
    1UNL     O1    1  -0.234   0.266  -0.061
    1UNL     C1    2  -0.204   0.162  -0.112
    1UNL     C2    3  -0.116   0.052  -0.053
    1UNL     C3    4  -0.195  -0.087  -0.066
    1UNL     C4    5  -0.327  -0.099  -0.042
    1UNL     O2    6  -0.403   0.008   0.015
    1UNL     C5    7  -0.522  -0.053   0.067
    1UNL     O3    8  -0.568  -0.009   0.195
    1UNL     C6    9  -0.639   0.119   0.186
    1UNL     C7   10  -0.546   0.232   0.139
    1UNL     O4   11  -0.520   0.227  -0.001
    1UNL     C8   12  -0.765   0.113   0.101
    1UNL     O5   13  -0.784   0.238   0.022
    1UNL     C9   14  -0.778  -0.021   0.022
    1UNL     O6   15  -0.821  -0.135   0.098
    1UNL    C10   16  -0.639  -0.051  -0.036
    1UNL     O7   17  -0.644  -0.173  -0.111
    1UNL    C11   18   0.018   0.038  -0.139
    1UNL    C12   19   0.139   0.017  -0.043
    1UNL    C13   20   0.161   0.139   0.050
    1UNL    C14   21   0.270   0.117   0.155
    1UNL     O8   22   0.402   0.103   0.108
    1UNL    C15   23   0.422  -0.016   0.048
    1UNL     O9   24   0.347  -0.115   0.039
    1UNL    C16   25   0.550  -0.033  -0.021
    1UNL    C17   26   0.608  -0.151  -0.052
    1UNL    C18   27   0.738  -0.172  -0.129
    1UNL    C19   28   0.827  -0.277  -0.089
    1UNL    C20   29   0.964  -0.287  -0.130
    1UNL    C21   30   1.010  -0.192  -0.219
    1UNL    O10   31   1.141  -0.194  -0.265
    1UNL    C22   32   0.924  -0.080  -0.255
    1UNL    O11   33   0.974   0.017  -0.341
    1UNL    C23   34   0.794  -0.072  -0.202
    1UNL    C24   35   0.025   0.185   0.111
    1UNL    C25   36  -0.078   0.073   0.099
    1UNL    O12   37  -0.196   0.106   0.175
    1UNL     H1   38  -0.232   0.160  -0.223
    1UNL     H2   39  -0.141  -0.171  -0.101
    1UNL     H3   40  -0.385  -0.198  -0.061
    1UNL     H4   41  -0.507  -0.170   0.088
    1UNL     H5   42  -0.663   0.131   0.291
    1UNL     H6   43  -0.590   0.325   0.145
    1UNL     H7   44  -0.454   0.230   0.204
    1UNL     H8   45  -0.421   0.236  -0.022
    1UNL     H9   46  -0.853   0.097   0.180
    1UNL    H10   47  -0.702   0.247  -0.043
    1UNL    H11   48  -0.843  -0.013  -0.070
    1UNL    H12   49  -0.771  -0.131   0.183
    1UNL    H13   50  -0.609   0.026  -0.114
    1UNL    H14   51  -0.700  -0.239  -0.063
    1UNL    H15   52   0.016  -0.036  -0.210
    1UNL    H16   53   0.034   0.130  -0.202
    1UNL    H17   54   0.229  -0.016  -0.094
    1UNL    H18   55   0.098  -0.072   0.017
    1UNL    H19   56   0.192   0.230  -0.006
    1UNL    H20   57   0.254   0.021   0.209
    1UNL    H21   58   0.279   0.205   0.226
    1UNL    H22   59   0.604   0.059  -0.030
    1UNL    H23   60   0.544  -0.231  -0.017
    1UNL    H24   61   0.784  -0.337  -0.010
    1UNL    H25   62   1.020  -0.377  -0.112
    1UNL    H26   63   1.157  -0.121  -0.326
    1UNL    H27   64   0.905   0.085  -0.342
    1UNL    H28   65   0.733  -0.005  -0.252
    1UNL    H29   66  -0.007   0.274   0.052
    1UNL    H30   67   0.029   0.227   0.211
    1UNL    H31   68  -0.037  -0.024   0.141
    1UNL    H32   69  -0.276   0.082   0.131
   0.00000   0.00000   0.00000   0.00000   0.00000   0.00000   0.00000   0.00000   0.00000
Generated with MDTraj, t= 70.0
 69
    1UNL     O1    1  -0.254   0.249  -0.044
    1UNL     C1    2  -0.210   0.162  -0.114
    1UNL     C2    3  -0.112   0.055  -0.058
    1UNL     C3    4  -0.186  -0.074  -0.085
    1UNL     C4    5  -0.313  -0.106  -0.046
    1UNL     O2    6  -0.401  -0.008   0.004
    1UNL     C5    7  -0.520  -0.064   0.064
    1UNL     O3    8  -0.561  -0.008   0.191
    1UNL     C6    9  -0.630   0.125   0.180
    1UNL     C7   10  -0.537   0.233   0.135
    1UNL     O4   11  -0.528   0.245  -0.008
    1UNL     C8   12  -0.768   0.112   0.109
    1UNL     O5   13  -0.795   0.235   0.036
    1UNL     C9   14  -0.775  -0.011   0.025
    1UNL     O6   15  -0.827  -0.120   0.097
    1UNL    C10   16  -0.637  -0.061  -0.036
    1UNL     O7   17  -0.651  -0.190  -0.098
    1UNL    C11   18   0.025   0.052  -0.141
    1UNL    C12   19   0.151   0.034  -0.055
    1UNL    C13   20   0.152   0.142   0.056
    1UNL    C14   21   0.262   0.103   0.151
    1UNL     O8   22   0.395   0.099   0.094
    1UNL    C15   23   0.431  -0.020   0.039
    1UNL     O9   24   0.374  -0.129   0.060
    1UNL    C16   25   0.556  -0.017  -0.025
    1UNL    C17   26   0.613  -0.131  -0.067
    1UNL    C18   27   0.744  -0.149  -0.116
    1UNL    C19   28   0.814  -0.263  -0.084
    1UNL    C20   29   0.949  -0.290  -0.122
    1UNL    C21   30   1.001  -0.193  -0.212
    1UNL    O10   31   1.125  -0.218  -0.262
    1UNL    C22   32   0.932  -0.082  -0.254
    1UNL    O11   33   0.987   0.009  -0.346
    1UNL    C23   34   0.806  -0.061  -0.205
    1UNL    C24   35   0.019   0.169   0.132
    1UNL    C25   36  -0.089   0.066   0.099
    1UNL    O12   37  -0.211   0.112   0.160
    1UNL     H1   38  -0.226   0.158  -0.216
    1UNL     H2   39  -0.112  -0.148  -0.118
    1UNL     H3   40  -0.342  -0.205  -0.043
    1UNL     H4   41  -0.495  -0.174   0.102
    1UNL     H5   42  -0.649   0.151   0.289
    1UNL     H6   43  -0.578   0.318   0.178
    1UNL     H7   44  -0.433   0.219   0.176
    1UNL     H8   45  -0.433   0.243  -0.030
    1UNL     H9   46  -0.846   0.100   0.193
    1UNL    H10   47  -0.715   0.258  -0.011
    1UNL    H11   48  -0.835   0.022  -0.065
    1UNL    H12   49  -0.781  -0.122   0.184
    1UNL    H13   50  -0.596   0.019  -0.109
    1UNL    H14   51  -0.711  -0.243  -0.042
    1UNL    H15   52   0.020  -0.002  -0.230
    1UNL    H16   53   0.047   0.157  -0.178
    1UNL    H17   54   0.239   0.032  -0.121
    1UNL    H18   55   0.145  -0.069  -0.007
    1UNL    H19   56   0.181   0.245   0.022
    1UNL    H20   57   0.241  -0.002   0.179
    1UNL    H21   58   0.281   0.165   0.244
    1UNL    H22   59   0.596   0.081  -0.048
    1UNL    H23   60   0.559  -0.223  -0.039
    1UNL    H24   61   0.761  -0.349  -0.045
    1UNL    H25   62   0.999  -0.381  -0.088
    1UNL    H26   63   1.147  -0.152  -0.334
    1UNL    H27   64   0.934   0.092  -0.357
    1UNL    H28   65   0.750   0.025  -0.251
    1UNL    H29   66  -0.021   0.272   0.112
    1UNL    H30   67   0.046   0.178   0.236
    1UNL    H31   68  -0.055  -0.031   0.145
    1UNL    H32   69  -0.290   0.072   0.111
   0.00000   0.00000   0.00000   0.00000   0.00000   0.00000   0.00000   0.00000   0.00000
Generated with MDTraj, t= 71.0
 69
    1UNL     O1    1  -0.226   0.275  -0.063
    1UNL     C1    2  -0.234   0.160  -0.093
    1UNL     C2    3  -0.132   0.058  -0.059
    1UNL     C3    4  -0.196  -0.076  -0.089
    1UNL     C4    5  -0.328  -0.101  -0.062
    1UNL     O2    6  -0.406  -0.009   0.014
    1UNL     C5    7  -0.526  -0.057   0.068
    1UNL     O3    8  -0.567  -0.003   0.197
    1UNL     C6    9  -0.627   0.128   0.185
    1UNL     C7   10  -0.540   0.237   0.136
    1UNL     O4   11  -0.517   0.225  -0.002
    1UNL     C8   12  -0.770   0.105   0.113
    1UNL     O5   13  -0.793   0.216   0.027
    1UNL     C9   14  -0.779  -0.023   0.028
    1UNL     O6   15  -0.798  -0.134   0.115
    1UNL    C10   16  -0.643  -0.046  -0.039
    1UNL     O7   17  -0.646  -0.159  -0.125
    1UNL    C11   18   0.003   0.056  -0.151
    1UNL    C12   19   0.131   0.036  -0.066
    1UNL    C13   20   0.145   0.155   0.041
    1UNL    C14   21   0.257   0.124   0.142
    1UNL     O8   22   0.389   0.110   0.084
    1UNL    C15   23   0.436  -0.009   0.044
    1UNL     O9   24   0.371  -0.112   0.065
    1UNL    C16   25   0.575  -0.011  -0.008
    1UNL    C17   26   0.627  -0.132  -0.030
    1UNL    C18   27   0.755  -0.162  -0.109
    1UNL    C19   28   0.826  -0.279  -0.085
    1UNL    C20   29   0.944  -0.302  -0.148
    1UNL    C21   30   1.005  -0.210  -0.225
    1UNL    O10   31   1.128  -0.222  -0.278
    1UNL    C22   32   0.941  -0.083  -0.247
    1UNL    O11   33   0.997   0.005  -0.335
    1UNL    C23   34   0.815  -0.065  -0.193
    1UNL    C24   35   0.008   0.182   0.115
    1UNL    C25   36  -0.092   0.061   0.098
    1UNL    O12   37  -0.205   0.073   0.194
    1UNL     H1   38  -0.318   0.128  -0.155
    1UNL     H2   39  -0.133  -0.147  -0.136
    1UNL     H3   40  -0.361  -0.190  -0.110
    1UNL     H4   41  -0.524  -0.175   0.082
    1UNL     H5   42  -0.639   0.155   0.298
    1UNL     H6   43  -0.589   0.328   0.153
    1UNL     H7   44  -0.450   0.231   0.204
    1UNL     H8   45  -0.429   0.268  -0.025
    1UNL     H9   46  -0.858   0.095   0.182
    1UNL    H10   47  -0.717   0.230  -0.027
    1UNL    H11   48  -0.869  -0.025  -0.041
    1UNL    H12   49  -0.726  -0.147   0.178
    1UNL    H13   50  -0.613   0.042  -0.107
    1UNL    H14   51  -0.692  -0.237  -0.087
    1UNL    H15   52   0.001  -0.011  -0.237
    1UNL    H16   53   0.008   0.158  -0.199
    1UNL    H17   54   0.225   0.015  -0.126
    1UNL    H18   55   0.114  -0.067  -0.020
    1UNL    H19   56   0.169   0.252  -0.011
    1UNL    H20   57   0.249   0.033   0.201
    1UNL    H21   58   0.265   0.210   0.210
    1UNL    H22   59   0.609   0.073  -0.060
    1UNL    H23   60   0.576  -0.219   0.005
    1UNL    H24   61   0.775  -0.365  -0.041
    1UNL    H25   62   1.002  -0.390  -0.126
    1UNL    H26   63   1.156  -0.140  -0.321
    1UNL    H27   64   0.958   0.098  -0.321
    1UNL    H28   65   0.762   0.024  -0.196
    1UNL    H29   66  -0.037   0.276   0.076
    1UNL    H30   67   0.016   0.206   0.221
    1UNL    H31   68  -0.052  -0.043   0.108
    1UNL    H32   69  -0.283   0.029   0.149
   0.00000   0.00000   0.00000   0.00000   0.00000   0.00000   0.00000   0.00000   0.00000
Generated with MDTraj, t= 72.0
 69
    1UNL     O1    1  -0.220   0.269  -0.042
    1UNL     C1    2  -0.222   0.157  -0.086
    1UNL     C2    3  -0.126   0.043  -0.059
    1UNL     C3    4  -0.190  -0.091  -0.076
    1UNL     C4    5  -0.317  -0.115  -0.033
    1UNL     O2    6  -0.391  -0.012   0.032
    1UNL     C5    7  -0.518  -0.062   0.063
    1UNL     O3    8  -0.574  -0.012   0.195
    1UNL     C6    9  -0.635   0.121   0.194
    1UNL     C7   10  -0.545   0.236   0.156
    1UNL     O4   11  -0.520   0.242   0.014
    1UNL     C8   12  -0.774   0.109   0.112
    1UNL     O5   13  -0.796   0.221   0.021
    1UNL     C9   14  -0.768  -0.026   0.031
    1UNL     O6   15  -0.805  -0.142   0.102
    1UNL    C10   16  -0.632  -0.044  -0.041
    1UNL     O7   17  -0.634  -0.150  -0.134
    1UNL    C11   18  -0.001   0.057  -0.166
    1UNL    C12   19   0.136   0.058  -0.096
    1UNL    C13   20   0.145   0.163   0.018
    1UNL    C14   21   0.261   0.137   0.114
    1UNL     O8   22   0.382   0.125   0.041
    1UNL    C15   23   0.429  -0.005   0.029
    1UNL     O9   24   0.362  -0.107   0.062
    1UNL    C16   25   0.565  -0.021  -0.031
    1UNL    C17   26   0.622  -0.139  -0.018
    1UNL    C18   27   0.753  -0.156  -0.078
    1UNL    C19   28   0.819  -0.282  -0.075
    1UNL    C20   29   0.936  -0.304  -0.140
    1UNL    C21   30   0.992  -0.212  -0.226
    1UNL    O10   31   1.097  -0.231  -0.312
    1UNL    C22   32   0.930  -0.085  -0.227
    1UNL    O11   33   0.999   0.012  -0.300
    1UNL    C23   34   0.820  -0.054  -0.146
    1UNL    C24   35   0.023   0.172   0.109
    1UNL    C25   36  -0.078   0.053   0.088
    1UNL    O12   37  -0.195   0.072   0.178
    1UNL     H1   38  -0.311   0.139  -0.154
    1UNL     H2   39  -0.135  -0.156  -0.143
    1UNL     H3   40  -0.361  -0.220  -0.056
    1UNL     H4   41  -0.504  -0.177   0.085
    1UNL     H5   42  -0.669   0.148   0.304
    1UNL     H6   43  -0.583   0.324   0.199
    1UNL     H7   44  -0.451   0.213   0.216
    1UNL     H8   45  -0.427   0.268  -0.002
    1UNL     H9   46  -0.869   0.110   0.167
    1UNL    H10   47  -0.699   0.245  -0.010
    1UNL    H11   48  -0.846  -0.022  -0.049
    1UNL    H12   49  -0.757  -0.145   0.189
    1UNL    H13   50  -0.605   0.056  -0.093
    1UNL    H14   51  -0.691  -0.224  -0.101
    1UNL    H15   52  -0.018  -0.026  -0.241
    1UNL    H16   53  -0.011   0.148  -0.233
    1UNL    H17   54   0.225   0.058  -0.170
    1UNL    H18   55   0.154  -0.043  -0.048
    1UNL    H19   56   0.161   0.262  -0.034
    1UNL    H20   57   0.243   0.054   0.180
    1UNL    H21   58   0.289   0.223   0.174
    1UNL    H22   59   0.617   0.064  -0.074
    1UNL    H23   60   0.575  -0.232   0.012
    1UNL    H24   61   0.778  -0.362  -0.014
    1UNL    H25   62   0.980  -0.401  -0.152
    1UNL    H26   63   1.106  -0.154  -0.372
    1UNL    H27   64   0.971   0.108  -0.282
    1UNL    H28   65   0.777   0.045  -0.149
    1UNL    H29   66  -0.033   0.267   0.100
    1UNL    H30   67   0.057   0.179   0.213
    1UNL    H31   68  -0.030  -0.041   0.116
    1UNL    H32   69  -0.276   0.044   0.138
   0.00000   0.00000   0.00000   0.00000   0.00000   0.00000   0.00000   0.00000   0.00000
Generated with MDTraj, t= 73.0
 69
    1UNL     O1    1  -0.262   0.238  -0.023
    1UNL     C1    2  -0.219   0.152  -0.093
    1UNL     C2    3  -0.122   0.044  -0.057
    1UNL     C3    4  -0.187  -0.089  -0.071
    1UNL     C4    5  -0.309  -0.110  -0.027
    1UNL     O2    6  -0.384  -0.014   0.053
    1UNL     C5    7  -0.514  -0.067   0.073
    1UNL     O3    8  -0.574  -0.020   0.204
    1UNL     C6    9  -0.642   0.107   0.202
    1UNL     C7   10  -0.542   0.217   0.169
    1UNL     O4   11  -0.529   0.232   0.024
    1UNL     C8   12  -0.767   0.107   0.102
    1UNL     O5   13  -0.785   0.235   0.046
    1UNL     C9   14  -0.764  -0.011  -0.004
    1UNL     O6   15  -0.828  -0.123   0.059
    1UNL    C10   16  -0.616  -0.044  -0.044
    1UNL     O7   17  -0.622  -0.165  -0.120
    1UNL    C11   18  -0.003   0.050  -0.158
    1UNL    C12   19   0.137   0.057  -0.094
    1UNL    C13   20   0.141   0.180   0.003
    1UNL    C14   21   0.263   0.158   0.092
    1UNL     O8   22   0.388   0.136   0.028
    1UNL    C15   23   0.423   0.005   0.025
    1UNL     O9   24   0.349  -0.086   0.071
    1UNL    C16   25   0.545  -0.025  -0.049
    1UNL    C17   26   0.625  -0.124  -0.015
    1UNL    C18   27   0.753  -0.159  -0.080
    1UNL    C19   28   0.794  -0.294  -0.093
    1UNL    C20   29   0.913  -0.324  -0.159
    1UNL    C21   30   0.988  -0.216  -0.226
    1UNL    O10   31   1.097  -0.233  -0.304
    1UNL    C22   32   0.940  -0.087  -0.215
    1UNL    O11   33   1.015   0.011  -0.285
    1UNL    C23   34   0.828  -0.057  -0.135
    1UNL    C24   35   0.018   0.192   0.086
    1UNL    C25   36  -0.063   0.060   0.088
    1UNL    O12   37  -0.167   0.070   0.181
    1UNL     H1   38  -0.253   0.140  -0.189
    1UNL     H2   39  -0.129  -0.171  -0.108
    1UNL     H3   40  -0.344  -0.206  -0.050
    1UNL     H4   41  -0.502  -0.184   0.083
    1UNL     H5   42  -0.672   0.119   0.316
    1UNL     H6   43  -0.577   0.306   0.217
    1UNL     H7   44  -0.446   0.192   0.227
    1UNL     H8   45  -0.435   0.246   0.001
    1UNL     H9   46  -0.851   0.092   0.166
    1UNL    H10   47  -0.696   0.246   0.002
    1UNL    H11   48  -0.810   0.009  -0.101
    1UNL    H12   49  -0.769  -0.147   0.134
    1UNL    H13   50  -0.575   0.034  -0.118
    1UNL    H14   51  -0.701  -0.216  -0.094
    1UNL    H15   52  -0.002  -0.055  -0.210
    1UNL    H16   53  -0.027   0.130  -0.233
    1UNL    H17   54   0.223   0.062  -0.174
    1UNL    H18   55   0.161  -0.040  -0.042
    1UNL    H19   56   0.157   0.274  -0.058
    1UNL    H20   57   0.261   0.080   0.168
    1UNL    H21   58   0.270   0.248   0.149
    1UNL    H22   59   0.580   0.047  -0.121
    1UNL    H23   60   0.598  -0.193   0.064
    1UNL    H24   61   0.756  -0.370  -0.027
    1UNL    H25   62   0.938  -0.427  -0.187
    1UNL    H26   63   1.139  -0.146  -0.324
    1UNL    H27   64   0.995   0.104  -0.259
    1UNL    H28   65   0.794   0.047  -0.116
    1UNL    H29   66  -0.050   0.266   0.043
    1UNL    H30   67   0.038   0.230   0.188
    1UNL    H31   68  -0.005  -0.026   0.119
    1UNL    H32   69  -0.251   0.068   0.129
   0.00000   0.00000   0.00000   0.00000   0.00000   0.00000   0.00000   0.00000   0.00000
Generated with MDTraj, t= 74.0
 69
    1UNL     O1    1  -0.241   0.251  -0.043
    1UNL     C1    2  -0.217   0.144  -0.087
    1UNL     C2    3  -0.121   0.039  -0.055
    1UNL     C3    4  -0.195  -0.096  -0.051
    1UNL     C4    5  -0.318  -0.118  -0.002
    1UNL     O2    6  -0.390  -0.028   0.085
    1UNL     C5    7  -0.528  -0.074   0.084
    1UNL     O3    8  -0.590  -0.037   0.213
    1UNL     C6    9  -0.655   0.095   0.204
    1UNL     C7   10  -0.550   0.201   0.172
    1UNL     O4   11  -0.520   0.212   0.028
    1UNL     C8   12  -0.775   0.099   0.109
    1UNL     O5   13  -0.795   0.229   0.052
    1UNL     C9   14  -0.759  -0.008  -0.010
    1UNL     O6   15  -0.830  -0.130   0.031
    1UNL    C10   16  -0.614  -0.038  -0.041
    1UNL     O7   17  -0.606  -0.141  -0.137
    1UNL    C11   18   0.005   0.040  -0.156
    1UNL    C12   19   0.143   0.054  -0.094
    1UNL    C13   20   0.144   0.183  -0.006
    1UNL    C14   21   0.269   0.181   0.082
    1UNL     O8   22   0.396   0.164   0.019
    1UNL    C15   23   0.435   0.035   0.027
    1UNL     O9   24   0.370  -0.062   0.070
    1UNL    C16   25   0.564   0.001  -0.029
    1UNL    C17   26   0.604  -0.123  -0.057
    1UNL    C18   27   0.742  -0.161  -0.113
    1UNL    C19   28   0.775  -0.299  -0.123
    1UNL    C20   29   0.895  -0.337  -0.178
    1UNL    C21   30   0.984  -0.234  -0.211
    1UNL    O10   31   1.107  -0.252  -0.277
    1UNL    C22   32   0.941  -0.091  -0.212
    1UNL    O11   33   1.033   0.003  -0.251
    1UNL    C23   34   0.818  -0.063  -0.166
    1UNL    C24   35   0.023   0.203   0.081
    1UNL    C25   36  -0.068   0.079   0.087
    1UNL    O12   37  -0.167   0.075   0.192
    1UNL     H1   38  -0.288   0.127  -0.172
    1UNL     H2   39  -0.145  -0.182  -0.096
    1UNL     H3   40  -0.364  -0.208  -0.029
    1UNL     H4   41  -0.522  -0.191   0.086
    1UNL     H5   42  -0.685   0.109   0.315
    1UNL     H6   43  -0.582   0.295   0.215
    1UNL     H7   44  -0.455   0.171   0.232
    1UNL     H8   45  -0.422   0.224   0.012
    1UNL     H9   46  -0.864   0.079   0.163
    1UNL    H10   47  -0.719   0.266   0.015
    1UNL    H11   48  -0.803   0.025  -0.104
    1UNL    H12   49  -0.789  -0.167   0.110
    1UNL    H13   50  -0.573   0.061  -0.081
    1UNL    H14   51  -0.692  -0.191  -0.133
    1UNL    H15   52   0.004  -0.068  -0.206
    1UNL    H16   53  -0.006   0.121  -0.232
    1UNL    H17   54   0.220   0.075  -0.180
    1UNL    H18   55   0.182  -0.037  -0.038
    1UNL    H19   56   0.156   0.267  -0.079
    1UNL    H20   57   0.251   0.110   0.165
    1UNL    H21   58   0.284   0.274   0.135
    1UNL    H22   59   0.631   0.081  -0.027
    1UNL    H23   60   0.539  -0.203  -0.028
    1UNL    H24   61   0.708  -0.374  -0.083
    1UNL    H25   62   0.927  -0.434  -0.165
    1UNL    H26   63   1.146  -0.171  -0.313
    1UNL    H27   64   1.007   0.086  -0.210
    1UNL    H28   65   0.789   0.033  -0.142
    1UNL    H29   66  -0.038   0.287   0.047
    1UNL    H30   67   0.061   0.228   0.183
    1UNL    H31   68  -0.006  -0.003   0.119
    1UNL    H32   69  -0.253   0.098   0.151
   0.00000   0.00000   0.00000   0.00000   0.00000   0.00000   0.00000   0.00000   0.00000
Generated with MDTraj, t= 75.0
 69
    1UNL     O1    1  -0.249   0.237  -0.043
    1UNL     C1    2  -0.232   0.125  -0.079
    1UNL     C2    3  -0.122   0.035  -0.032
    1UNL     C3    4  -0.173  -0.103  -0.028
    1UNL     C4    5  -0.297  -0.129   0.020
    1UNL     O2    6  -0.388  -0.035   0.076
    1UNL     C5    7  -0.524  -0.086   0.078
    1UNL     O3    8  -0.597  -0.044   0.195
    1UNL     C6    9  -0.646   0.093   0.195
    1UNL     C7   10  -0.541   0.204   0.180
    1UNL     O4   11  -0.521   0.242   0.047
    1UNL     C8   12  -0.765   0.093   0.105
    1UNL     O5   13  -0.790   0.223   0.042
    1UNL     C9   14  -0.746  -0.012  -0.013
    1UNL     O6   15  -0.805  -0.141   0.030
    1UNL    C10   16  -0.603  -0.039  -0.046
    1UNL     O7   17  -0.589  -0.129  -0.152
    1UNL    C11   18  -0.009   0.038  -0.143
    1UNL    C12   19   0.127   0.064  -0.084
    1UNL    C13   20   0.143   0.189   0.012
    1UNL    C14   21   0.274   0.184   0.093
    1UNL     O8   22   0.389   0.174   0.012
    1UNL    C15   23   0.425   0.042   0.008
    1UNL     O9   24   0.368  -0.061   0.052
    1UNL    C16   25   0.548   0.024  -0.061
    1UNL    C17   26   0.593  -0.099  -0.083
    1UNL    C18   27   0.725  -0.140  -0.133
    1UNL    C19   28   0.747  -0.275  -0.155
    1UNL    C20   29   0.874  -0.329  -0.192
    1UNL    C21   30   0.980  -0.240  -0.211
    1UNL    O10   31   1.109  -0.292  -0.242
    1UNL    C22   32   0.956  -0.104  -0.202
    1UNL    O11   33   1.061  -0.021  -0.244
    1UNL    C23   34   0.831  -0.057  -0.168
    1UNL    C24   35   0.014   0.201   0.099
    1UNL    C25   36  -0.080   0.080   0.105
    1UNL    O12   37  -0.189   0.105   0.191
    1UNL     H1   38  -0.301   0.066  -0.144
    1UNL     H2   39  -0.119  -0.177  -0.083
    1UNL     H3   40  -0.338  -0.238   0.027
    1UNL     H4   41  -0.527  -0.203   0.072
    1UNL     H5   42  -0.688   0.105   0.299
    1UNL     H6   43  -0.576   0.296   0.229
    1UNL     H7   44  -0.442   0.175   0.236
    1UNL     H8   45  -0.428   0.251   0.020
    1UNL     H9   46  -0.856   0.066   0.155
    1UNL    H10   47  -0.701   0.253  -0.005
    1UNL    H11   48  -0.798   0.020  -0.101
    1UNL    H12   49  -0.771  -0.165   0.119
    1UNL    H13   50  -0.560   0.064  -0.074
    1UNL    H14   51  -0.661  -0.194  -0.151
    1UNL    H15   52  -0.009  -0.065  -0.195
    1UNL    H16   53  -0.033   0.114  -0.223
    1UNL    H17   54   0.212   0.064  -0.163
    1UNL    H18   55   0.145  -0.024  -0.011
    1UNL    H19   56   0.146   0.277  -0.056
    1UNL    H20   57   0.270   0.104   0.174
    1UNL    H21   58   0.276   0.274   0.156
    1UNL    H22   59   0.606   0.112  -0.096
    1UNL    H23   60   0.536  -0.183  -0.041
    1UNL    H24   61   0.674  -0.346  -0.125
    1UNL    H25   62   0.888  -0.441  -0.188
    1UNL    H26   63   1.171  -0.216  -0.251
    1UNL    H27   64   1.056   0.071  -0.218
    1UNL    H28   65   0.818   0.046  -0.124
    1UNL    H29   66  -0.053   0.277   0.058
    1UNL    H30   67   0.045   0.227   0.203
    1UNL    H31   68  -0.024   0.005   0.161
    1UNL    H32   69  -0.264   0.044   0.178
   0.00000   0.00000   0.00000   0.00000   0.00000   0.00000   0.00000   0.00000   0.00000
Generated with MDTraj, t= 76.0
 69
    1UNL     O1    1  -0.255   0.237  -0.056
    1UNL     C1    2  -0.245   0.119  -0.061
    1UNL     C2    3  -0.130   0.042  -0.016
    1UNL     C3    4  -0.171  -0.102  -0.004
    1UNL     C4    5  -0.293  -0.140   0.034
    1UNL     O2    6  -0.384  -0.041   0.071
    1UNL     C5    7  -0.519  -0.086   0.076
    1UNL     O3    8  -0.586  -0.048   0.195
    1UNL     C6    9  -0.642   0.086   0.195
    1UNL     C7   10  -0.544   0.200   0.175
    1UNL     O4   11  -0.512   0.225   0.037
    1UNL     C8   12  -0.760   0.084   0.095
    1UNL     O5   13  -0.783   0.221   0.032
    1UNL     C9   14  -0.740  -0.014  -0.015
    1UNL     O6   15  -0.795  -0.143   0.030
    1UNL    C10   16  -0.595  -0.035  -0.056
    1UNL     O7   17  -0.571  -0.125  -0.163
    1UNL    C11   18  -0.018   0.050  -0.126
    1UNL    C12   19   0.122   0.055  -0.067
    1UNL    C13   20   0.141   0.195   0.013
    1UNL    C14   21   0.266   0.192   0.100
    1UNL     O8   22   0.386   0.187   0.024
    1UNL    C15   23   0.425   0.056  -0.013
    1UNL     O9   24   0.347  -0.037   0.012
    1UNL    C16   25   0.551   0.034  -0.085
    1UNL    C17   26   0.595  -0.095  -0.103
    1UNL    C18   27   0.725  -0.140  -0.147
    1UNL    C19   28   0.738  -0.278  -0.164
    1UNL    C20   29   0.862  -0.337  -0.193
    1UNL    C21   30   0.971  -0.255  -0.211
    1UNL    O10   31   1.089  -0.303  -0.244
    1UNL    C22   32   0.957  -0.114  -0.205
    1UNL    O11   33   1.068  -0.031  -0.204
    1UNL    C23   34   0.834  -0.056  -0.165
    1UNL    C24   35   0.008   0.217   0.097
    1UNL    C25   36  -0.077   0.090   0.122
    1UNL    O12   37  -0.178   0.105   0.218
    1UNL     H1   38  -0.337   0.081  -0.087
    1UNL     H2   39  -0.098  -0.180  -0.018
    1UNL     H3   40  -0.314  -0.245   0.035
    1UNL     H4   41  -0.518  -0.202   0.079
    1UNL     H5   42  -0.684   0.102   0.293
    1UNL     H6   43  -0.591   0.297   0.202
    1UNL     H7   44  -0.449   0.185   0.246
    1UNL     H8   45  -0.414   0.232   0.020
    1UNL     H9   46  -0.851   0.059   0.151
    1UNL    H10   47  -0.687   0.249   0.020
    1UNL    H11   48  -0.788   0.025  -0.104
    1UNL    H12   49  -0.740  -0.172   0.108
    1UNL    H13   50  -0.542   0.060  -0.088
    1UNL    H14   51  -0.628  -0.203  -0.156
    1UNL    H15   52  -0.031  -0.022  -0.213
    1UNL    H16   53  -0.035   0.155  -0.171
    1UNL    H17   54   0.201   0.065  -0.149
    1UNL    H18   55   0.154  -0.034  -0.000
    1UNL    H19   56   0.154   0.275  -0.062
    1UNL    H20   57   0.259   0.112   0.181
    1UNL    H21   58   0.262   0.288   0.156
    1UNL    H22   59   0.603   0.118  -0.121
    1UNL    H23   60   0.522  -0.173  -0.105
    1UNL    H24   61   0.650  -0.344  -0.148
    1UNL    H25   62   0.875  -0.440  -0.198
    1UNL    H26   63   1.155  -0.231  -0.254
    1UNL    H27   64   1.049   0.051  -0.156
    1UNL    H28   65   0.826   0.048  -0.161
    1UNL    H29   66  -0.052   0.299   0.059
    1UNL    H30   67   0.038   0.233   0.204
    1UNL    H31   68  -0.013   0.002   0.146
    1UNL    H32   69  -0.256   0.047   0.189
   0.00000   0.00000   0.00000   0.00000   0.00000   0.00000   0.00000   0.00000   0.00000
Generated with MDTraj, t= 77.0
 69
    1UNL     O1    1  -0.233   0.258  -0.035
    1UNL     C1    2  -0.220   0.143  -0.068
    1UNL     C2    3  -0.114   0.046  -0.028
    1UNL     C3    4  -0.177  -0.093  -0.018
    1UNL     C4    5  -0.299  -0.126   0.038
    1UNL     O2    6  -0.391  -0.040   0.101
    1UNL     C5    7  -0.524  -0.088   0.099
    1UNL     O3    8  -0.601  -0.054   0.212
    1UNL     C6    9  -0.655   0.083   0.191
    1UNL     C7   10  -0.545   0.188   0.171
    1UNL     O4   11  -0.514   0.222   0.036
    1UNL     C8   12  -0.770   0.075   0.083
    1UNL     O5   13  -0.800   0.215   0.033
    1UNL     C9   14  -0.737  -0.021  -0.028
    1UNL     O6   15  -0.806  -0.146   0.012
    1UNL    C10   16  -0.590  -0.047  -0.043
    1UNL     O7   17  -0.564  -0.148  -0.134
    1UNL    C11   18  -0.011   0.056  -0.143
    1UNL    C12   19   0.133   0.086  -0.095
    1UNL    C13   20   0.148   0.210   0.004
    1UNL    C14   21   0.272   0.197   0.087
    1UNL     O8   22   0.389   0.181   0.011
    1UNL    C15   23   0.427   0.053  -0.010
    1UNL     O9   24   0.352  -0.042   0.014
    1UNL    C16   25   0.568   0.027  -0.047
    1UNL    C17   26   0.585  -0.094  -0.100
    1UNL    C18   27   0.710  -0.151  -0.143
    1UNL    C19   28   0.723  -0.284  -0.185
    1UNL    C20   29   0.847  -0.322  -0.213
    1UNL    C21   30   0.960  -0.251  -0.221
    1UNL    O10   31   1.085  -0.306  -0.244
    1UNL    C22   32   0.952  -0.115  -0.183
    1UNL    O11   33   1.062  -0.028  -0.193
    1UNL    C23   34   0.824  -0.069  -0.142
    1UNL    C24   35   0.020   0.220   0.097
    1UNL    C25   36  -0.059   0.085   0.108
    1UNL    O12   37  -0.160   0.103   0.200
    1UNL     H1   38  -0.295   0.076  -0.119
    1UNL     H2   39  -0.106  -0.172  -0.040
    1UNL     H3   40  -0.331  -0.224   0.036
    1UNL     H4   41  -0.514  -0.203   0.111
    1UNL     H5   42  -0.695   0.101   0.287
    1UNL     H6   43  -0.581   0.281   0.218
    1UNL     H7   44  -0.442   0.156   0.223
    1UNL     H8   45  -0.418   0.237   0.014
    1UNL     H9   46  -0.863   0.030   0.130
    1UNL    H10   47  -0.730   0.235  -0.025
    1UNL    H11   48  -0.782   0.007  -0.125
    1UNL    H12   49  -0.778  -0.161   0.103
    1UNL    H13   50  -0.533   0.048  -0.076
    1UNL    H14   51  -0.638  -0.212  -0.115
    1UNL    H15   52  -0.019  -0.034  -0.206
    1UNL    H16   53  -0.037   0.146  -0.213
    1UNL    H17   54   0.202   0.107  -0.182
    1UNL    H18   55   0.178  -0.004  -0.036
    1UNL    H19   56   0.167   0.302  -0.054
    1UNL    H20   57   0.247   0.116   0.163
    1UNL    H21   58   0.284   0.291   0.145
    1UNL    H22   59   0.637   0.105  -0.068
    1UNL    H23   60   0.495  -0.154  -0.107
    1UNL    H24   61   0.651  -0.360  -0.175
    1UNL    H25   62   0.859  -0.424  -0.254
    1UNL    H26   63   1.156  -0.239  -0.244
    1UNL    H27   64   1.050   0.054  -0.139
    1UNL    H28   65   0.817   0.038  -0.125
    1UNL    H29   66  -0.055   0.292   0.066
    1UNL    H30   67   0.047   0.245   0.202
    1UNL    H31   68   0.015   0.008   0.145
    1UNL    H32   69  -0.234   0.050   0.170
   0.00000   0.00000   0.00000   0.00000   0.00000   0.00000   0.00000   0.00000   0.00000
Generated with MDTraj, t= 78.0
 69
    1UNL     O1    1  -0.265   0.257  -0.006
    1UNL     C1    2  -0.239   0.165  -0.076
    1UNL     C2    3  -0.128   0.066  -0.042
    1UNL     C3    4  -0.176  -0.078  -0.046
    1UNL     C4    5  -0.297  -0.110   0.006
    1UNL     O2    6  -0.373  -0.028   0.091
    1UNL     C5    7  -0.497  -0.091   0.106
    1UNL     O3    8  -0.580  -0.040   0.214
    1UNL     C6    9  -0.654   0.091   0.197
    1UNL     C7   10  -0.567   0.212   0.175
    1UNL     O4   11  -0.531   0.221   0.037
    1UNL     C8   12  -0.768   0.071   0.087
    1UNL     O5   13  -0.782   0.200   0.017
    1UNL     C9   14  -0.723  -0.031  -0.018
    1UNL     O6   15  -0.801  -0.153   0.003
    1UNL    C10   16  -0.578  -0.067  -0.034
    1UNL     O7   17  -0.558  -0.183  -0.109
    1UNL    C11   18  -0.019   0.089  -0.150
    1UNL    C12   19   0.121   0.089  -0.094
    1UNL    C13   20   0.147   0.210  -0.003
    1UNL    C14   21   0.267   0.201   0.088
    1UNL     O8   22   0.379   0.177   0.012
    1UNL    C15   23   0.413   0.040   0.000
    1UNL     O9   24   0.359  -0.044   0.074
    1UNL    C16   25   0.539   0.005  -0.071
    1UNL    C17   26   0.589  -0.116  -0.077
    1UNL    C18   27   0.715  -0.157  -0.133
    1UNL    C19   28   0.732  -0.282  -0.187
    1UNL    C20   29   0.854  -0.327  -0.239
    1UNL    C21   30   0.968  -0.250  -0.232
    1UNL    O10   31   1.092  -0.295  -0.275
    1UNL    C22   32   0.951  -0.122  -0.180
    1UNL    O11   33   1.067  -0.049  -0.169
    1UNL    C23   34   0.828  -0.070  -0.131
    1UNL    C24   35   0.023   0.226   0.082
    1UNL    C25   36  -0.066   0.100   0.096
    1UNL    O12   37  -0.156   0.099   0.198
    1UNL     H1   38  -0.321   0.146  -0.149
    1UNL     H2   39  -0.121  -0.140  -0.114
    1UNL     H3   40  -0.344  -0.214  -0.001
    1UNL     H4   41  -0.487  -0.205   0.121
    1UNL     H5   42  -0.690   0.103   0.294
    1UNL     H6   43  -0.618   0.305   0.198
    1UNL     H7   44  -0.470   0.201   0.243
    1UNL     H8   45  -0.437   0.244   0.029
    1UNL     H9   46  -0.875   0.046   0.123
    1UNL    H10   47  -0.692   0.239  -0.016
    1UNL    H11   48  -0.765   0.005  -0.116
    1UNL    H12   49  -0.783  -0.177   0.095
    1UNL    H13   50  -0.532   0.021  -0.093
    1UNL    H14   51  -0.646  -0.227  -0.115
    1UNL    H15   52  -0.025   0.015  -0.228
    1UNL    H16   53  -0.030   0.194  -0.201
    1UNL    H17   54   0.204   0.088  -0.171
    1UNL    H18   55   0.133  -0.005  -0.029
    1UNL    H19   56   0.162   0.303  -0.060
    1UNL    H20   57   0.260   0.113   0.158
    1UNL    H21   58   0.276   0.290   0.149
    1UNL    H22   59   0.592   0.088  -0.122
    1UNL    H23   60   0.525  -0.195  -0.044
    1UNL    H24   61   0.639  -0.339  -0.212
    1UNL    H25   62   0.876  -0.431  -0.258
    1UNL    H26   63   1.156  -0.220  -0.261
    1UNL    H27   64   1.059   0.023  -0.098
    1UNL    H28   65   0.809   0.036  -0.103
    1UNL    H29   66  -0.045   0.308   0.055
    1UNL    H30   67   0.054   0.246   0.186
    1UNL    H31   68   0.000   0.012   0.124
    1UNL    H32   69  -0.245   0.060   0.168
   0.00000   0.00000   0.00000   0.00000   0.00000   0.00000   0.00000   0.00000   0.00000
Generated with MDTraj, t= 79.0
 69
    1UNL     O1    1  -0.241   0.296  -0.032
    1UNL     C1    2  -0.239   0.179  -0.067
    1UNL     C2    3  -0.125   0.083  -0.046
    1UNL     C3    4  -0.179  -0.062  -0.055
    1UNL     C4    5  -0.291  -0.099   0.000
    1UNL     O2    6  -0.380  -0.022   0.081
    1UNL     C5    7  -0.510  -0.087   0.097
    1UNL     O3    8  -0.585  -0.043   0.214
    1UNL     C6    9  -0.651   0.086   0.199
    1UNL     C7   10  -0.565   0.208   0.157
    1UNL     O4   11  -0.535   0.221   0.013
    1UNL     C8   12  -0.769   0.060   0.090
    1UNL     O5   13  -0.803   0.177   0.012
    1UNL     C9   14  -0.736  -0.054  -0.005
    1UNL     O6   15  -0.776  -0.187   0.054
    1UNL    C10   16  -0.595  -0.066  -0.035
    1UNL     O7   17  -0.564  -0.172  -0.127
    1UNL    C11   18  -0.017   0.109  -0.160
    1UNL    C12   19   0.119   0.110  -0.104
    1UNL    C13   20   0.149   0.217   0.009
    1UNL    C14   21   0.279   0.184   0.079
    1UNL     O8   22   0.397   0.164   0.008
    1UNL    C15   23   0.423   0.033   0.012
    1UNL     O9   24   0.352  -0.055   0.060
    1UNL    C16   25   0.555  -0.005  -0.042
    1UNL    C17   26   0.594  -0.131  -0.063
    1UNL    C18   27   0.718  -0.175  -0.122
    1UNL    C19   28   0.728  -0.301  -0.180
    1UNL    C20   29   0.845  -0.333  -0.248
    1UNL    C21   30   0.958  -0.244  -0.251
    1UNL    O10   31   1.084  -0.267  -0.304
    1UNL    C22   32   0.951  -0.128  -0.160
    1UNL    O11   33   1.055  -0.042  -0.167
    1UNL    C23   34   0.834  -0.098  -0.104
    1UNL    C24   35   0.029   0.233   0.109
    1UNL    C25   36  -0.067   0.113   0.100
    1UNL    O12   37  -0.162   0.119   0.203
    1UNL     H1   38  -0.324   0.135  -0.108
    1UNL     H2   39  -0.122  -0.137  -0.109
    1UNL     H3   40  -0.321  -0.201  -0.039
    1UNL     H4   41  -0.485  -0.197   0.118
    1UNL     H5   42  -0.696   0.113   0.292
    1UNL     H6   43  -0.610   0.297   0.194
    1UNL     H7   44  -0.462   0.197   0.208
    1UNL     H8   45  -0.442   0.255  -0.007
    1UNL     H9   46  -0.865   0.041   0.146
    1UNL    H10   47  -0.707   0.208  -0.011
    1UNL    H11   48  -0.792  -0.058  -0.104
    1UNL    H12   49  -0.724  -0.195   0.138
    1UNL    H13   50  -0.556   0.031  -0.081
    1UNL    H14   51  -0.635  -0.239  -0.116
    1UNL    H15   52  -0.018   0.033  -0.236
    1UNL    H16   53  -0.043   0.209  -0.211
    1UNL    H17   54   0.193   0.131  -0.188
    1UNL    H18   55   0.154   0.010  -0.066
    1UNL    H19   56   0.155   0.315  -0.038
    1UNL    H20   57   0.263   0.095   0.141
    1UNL    H21   58   0.316   0.263   0.142
    1UNL    H22   59   0.609   0.081  -0.059
    1UNL    H23   60   0.526  -0.212  -0.036
    1UNL    H24   61   0.645  -0.366  -0.174
    1UNL    H25   62   0.858  -0.432  -0.290
    1UNL    H26   63   1.144  -0.192  -0.297
    1UNL    H27   64   1.058   0.026  -0.092
    1UNL    H28   65   0.834  -0.006  -0.058
    1UNL    H29   66  -0.027   0.322   0.078
    1UNL    H30   67   0.057   0.244   0.215
    1UNL    H31   68  -0.013   0.017   0.126
    1UNL    H32   69  -0.245   0.078   0.169
   0.00000   0.00000   0.00000   0.00000   0.00000   0.00000   0.00000   0.00000   0.00000
Generated with MDTraj, t= 80.0
 69
    1UNL     O1    1  -0.257   0.291  -0.046
    1UNL     C1    2  -0.242   0.179  -0.082
    1UNL     C2    3  -0.120   0.100  -0.046
    1UNL     C3    4  -0.165  -0.042  -0.053
    1UNL     C4    5  -0.282  -0.093  -0.011
    1UNL     O2    6  -0.379  -0.013   0.051
    1UNL     C5    7  -0.499  -0.082   0.083
    1UNL     O3    8  -0.561  -0.027   0.203
    1UNL     C6    9  -0.650   0.087   0.192
    1UNL     C7   10  -0.565   0.206   0.151
    1UNL     O4   11  -0.536   0.216   0.008
    1UNL     C8   12  -0.775   0.051   0.097
    1UNL     O5   13  -0.812   0.160   0.012
    1UNL     C9   14  -0.738  -0.075   0.010
    1UNL     O6   15  -0.757  -0.198   0.095
    1UNL    C10   16  -0.597  -0.068  -0.035
    1UNL     O7   17  -0.572  -0.169  -0.134
    1UNL    C11   18  -0.003   0.120  -0.154
    1UNL    C12   19   0.143   0.114  -0.097
    1UNL    C13   20   0.162   0.222   0.021
    1UNL    C14   21   0.268   0.171   0.115
    1UNL     O8   22   0.391   0.149   0.048
    1UNL    C15   23   0.409   0.018   0.021
    1UNL     O9   24   0.328  -0.075   0.028
    1UNL    C16   25   0.545  -0.013  -0.035
    1UNL    C17   26   0.594  -0.138  -0.050
    1UNL    C18   27   0.723  -0.181  -0.109
    1UNL    C19   28   0.729  -0.298  -0.185
    1UNL    C20   29   0.844  -0.332  -0.250
    1UNL    C21   30   0.950  -0.239  -0.249
    1UNL    O10   31   1.071  -0.267  -0.314
    1UNL    C22   32   0.946  -0.120  -0.175
    1UNL    O11   33   1.062  -0.052  -0.169
    1UNL    C23   34   0.831  -0.095  -0.104
    1UNL    C24   35   0.033   0.253   0.103
    1UNL    C25   36  -0.064   0.130   0.098
    1UNL    O12   37  -0.169   0.140   0.195
    1UNL     H1   38  -0.308   0.146  -0.168
    1UNL     H2   39  -0.082  -0.108  -0.074
    1UNL     H3   40  -0.304  -0.192  -0.012
    1UNL     H4   41  -0.484  -0.195   0.098
    1UNL     H5   42  -0.676   0.100   0.300
    1UNL     H6   43  -0.616   0.293   0.172
    1UNL     H7   44  -0.475   0.191   0.216
    1UNL     H8   45  -0.441   0.229  -0.007
    1UNL     H9   46  -0.867   0.039   0.157
    1UNL    H10   47  -0.751   0.167  -0.058
    1UNL    H11   48  -0.800  -0.087  -0.084
    1UNL    H12   49  -0.707  -0.173   0.175
    1UNL    H13   50  -0.590   0.032  -0.091
    1UNL    H14   51  -0.626  -0.249  -0.110
    1UNL    H15   52  -0.017   0.046  -0.232
    1UNL    H16   53  -0.023   0.215  -0.206
    1UNL    H17   54   0.230   0.131  -0.169
    1UNL    H18   55   0.163   0.010  -0.067
    1UNL    H19   56   0.198   0.317  -0.019
    1UNL    H20   57   0.241   0.068   0.142
    1UNL    H21   58   0.286   0.231   0.200
    1UNL    H22   59   0.606   0.082  -0.024
    1UNL    H23   60   0.526  -0.215  -0.019
    1UNL    H24   61   0.633  -0.349  -0.210
    1UNL    H25   62   0.849  -0.428  -0.304
    1UNL    H26   63   1.129  -0.187  -0.298
    1UNL    H27   64   1.057   0.012  -0.094
    1UNL    H28   65   0.802   0.011  -0.077
    1UNL    H29   66  -0.019   0.345   0.071
    1UNL    H30   67   0.070   0.275   0.203
    1UNL    H31   68  -0.000   0.048   0.138
    1UNL    H32   69  -0.251   0.098   0.157
   0.00000   0.00000   0.00000   0.00000   0.00000   0.00000   0.00000   0.00000   0.00000
Generated with MDTraj, t= 81.0
 69
    1UNL     O1    1  -0.291   0.280  -0.058
    1UNL     C1    2  -0.235   0.186  -0.104
    1UNL     C2    3  -0.116   0.104  -0.062
    1UNL     C3    4  -0.146  -0.042  -0.062
    1UNL     C4    5  -0.269  -0.092  -0.033
    1UNL     O2    6  -0.359  -0.006   0.024
    1UNL     C5    7  -0.474  -0.071   0.079
    1UNL     O3    8  -0.532  -0.017   0.204
    1UNL     C6    9  -0.634   0.090   0.189
    1UNL     C7   10  -0.570   0.220   0.149
    1UNL     O4   11  -0.555   0.222   0.008
    1UNL     C8   12  -0.755   0.051   0.106
    1UNL     O5   13  -0.816   0.155   0.029
    1UNL     C9   14  -0.722  -0.074   0.014
    1UNL     O6   15  -0.753  -0.197   0.094
    1UNL    C10   16  -0.583  -0.082  -0.036
    1UNL     O7   17  -0.557  -0.202  -0.106
    1UNL    C11   18   0.009   0.131  -0.165
    1UNL    C12   19   0.150   0.117  -0.087
    1UNL    C13   20   0.164   0.211   0.044
    1UNL    C14   21   0.252   0.145   0.148
    1UNL     O8   22   0.387   0.135   0.109
    1UNL    C15   23   0.410   0.011   0.045
    1UNL     O9   24   0.325  -0.075   0.016
    1UNL    C16   25   0.543  -0.022  -0.009
    1UNL    C17   26   0.568  -0.129  -0.081
    1UNL    C18   27   0.697  -0.166  -0.136
    1UNL    C19   28   0.716  -0.290  -0.192
    1UNL    C20   29   0.840  -0.329  -0.246
    1UNL    C21   30   0.950  -0.245  -0.247
    1UNL    O10   31   1.074  -0.276  -0.302
    1UNL    C22   32   0.937  -0.128  -0.173
    1UNL    O11   33   1.047  -0.047  -0.179
    1UNL    C23   34   0.813  -0.091  -0.118
    1UNL    C24   35   0.029   0.254   0.103
    1UNL    C25   36  -0.070   0.136   0.087
    1UNL    O12   37  -0.186   0.168   0.168
    1UNL     H1   38  -0.266   0.160  -0.206
    1UNL     H2   39  -0.072  -0.110  -0.104
    1UNL     H3   40  -0.284  -0.201  -0.036
    1UNL     H4   41  -0.428  -0.170   0.116
    1UNL     H5   42  -0.674   0.101   0.297
    1UNL     H6   43  -0.644   0.285   0.181
    1UNL     H7   44  -0.473   0.230   0.196
    1UNL     H8   45  -0.463   0.247  -0.020
    1UNL     H9   46  -0.836   0.017   0.168
    1UNL    H10   47  -0.752   0.235   0.005
    1UNL    H11   48  -0.788  -0.095  -0.075
    1UNL    H12   49  -0.684  -0.198   0.163
    1UNL    H13   50  -0.570   0.011  -0.101
    1UNL    H14   51  -0.610  -0.275  -0.069
    1UNL    H15   52   0.007   0.075  -0.259
    1UNL    H16   53   0.002   0.232  -0.189
    1UNL    H17   54   0.237   0.103  -0.158
    1UNL    H18   55   0.141   0.016  -0.049
    1UNL    H19   56   0.222   0.295   0.009
    1UNL    H20   57   0.223   0.041   0.165
    1UNL    H21   58   0.251   0.203   0.238
    1UNL    H22   59   0.614   0.056  -0.003
    1UNL    H23   60   0.499  -0.211  -0.060
    1UNL    H24   61   0.638  -0.360  -0.192
    1UNL    H25   62   0.854  -0.413  -0.309
    1UNL    H26   63   1.131  -0.198  -0.289
    1UNL    H27   64   1.039   0.024  -0.115
    1UNL    H28   65   0.812   0.007  -0.083
    1UNL    H29   66  -0.007   0.345   0.052
    1UNL    H30   67   0.040   0.285   0.207
    1UNL    H31   68  -0.019   0.049   0.126
    1UNL    H32   69  -0.264   0.121   0.130
   0.00000   0.00000   0.00000   0.00000   0.00000   0.00000   0.00000   0.00000   0.00000
Generated with MDTraj, t= 82.0
 69
    1UNL     O1    1  -0.270   0.312  -0.077
    1UNL     C1    2  -0.209   0.222  -0.131
    1UNL     C2    3  -0.108   0.121  -0.070
    1UNL     C3    4  -0.157  -0.023  -0.089
    1UNL     C4    5  -0.274  -0.073  -0.042
    1UNL     O2    6  -0.362   0.005   0.036
    1UNL     C5    7  -0.469  -0.068   0.090
    1UNL     O3    8  -0.528  -0.023   0.210
    1UNL     C6    9  -0.620   0.088   0.187
    1UNL     C7   10  -0.552   0.209   0.131
    1UNL     O4   11  -0.537   0.200  -0.007
    1UNL     C8   12  -0.748   0.039   0.120
    1UNL     O5   13  -0.804   0.141   0.036
    1UNL     C9   14  -0.721  -0.089   0.033
    1UNL     O6   15  -0.733  -0.210   0.105
    1UNL    C10   16  -0.581  -0.091  -0.023
    1UNL     O7   17  -0.555  -0.204  -0.108
    1UNL    C11   18   0.025   0.133  -0.154
    1UNL    C12   19   0.150   0.111  -0.073
    1UNL    C13   20   0.168   0.208   0.050
    1UNL    C14   21   0.248   0.131   0.160
    1UNL     O8   22   0.381   0.109   0.120
    1UNL    C15   23   0.405  -0.008   0.056
    1UNL     O9   24   0.316  -0.088   0.034
    1UNL    C16   25   0.542  -0.035   0.007
    1UNL    C17   26   0.562  -0.119  -0.091
    1UNL    C18   27   0.685  -0.164  -0.147
    1UNL    C19   28   0.697  -0.286  -0.212
    1UNL    C20   29   0.826  -0.322  -0.245
    1UNL    C21   30   0.933  -0.245  -0.235
    1UNL    O10   31   1.057  -0.284  -0.268
    1UNL    C22   32   0.918  -0.112  -0.187
    1UNL    O11   33   1.032  -0.037  -0.180
    1UNL    C23   34   0.795  -0.074  -0.134
    1UNL    C24   35   0.032   0.250   0.104
    1UNL    C25   36  -0.072   0.137   0.079
    1UNL    O12   37  -0.197   0.186   0.143
    1UNL     H1   38  -0.217   0.220  -0.235
    1UNL     H2   39  -0.098  -0.092  -0.147
    1UNL     H3   40  -0.311  -0.171  -0.090
    1UNL     H4   41  -0.421  -0.166   0.121
    1UNL     H5   42  -0.644   0.117   0.297
    1UNL     H6   43  -0.606   0.295   0.144
    1UNL     H7   44  -0.461   0.204   0.188
    1UNL     H8   45  -0.463   0.259  -0.041
    1UNL     H9   46  -0.823   0.031   0.195
    1UNL    H10   47  -0.735   0.159  -0.030
    1UNL    H11   48  -0.787  -0.094  -0.055
    1UNL    H12   49  -0.654  -0.205   0.166
    1UNL    H13   50  -0.577  -0.007  -0.098
    1UNL    H14   51  -0.601  -0.287  -0.085
    1UNL    H15   52   0.019   0.059  -0.233
    1UNL    H16   53   0.035   0.219  -0.207
    1UNL    H17   54   0.236   0.121  -0.145
    1UNL    H18   55   0.155   0.006  -0.052
    1UNL    H19   56   0.230   0.289   0.015
    1UNL    H20   57   0.203   0.029   0.168
    1UNL    H21   58   0.252   0.180   0.256
    1UNL    H22   59   0.621   0.016   0.054
    1UNL    H23   60   0.477  -0.179  -0.114
    1UNL    H24   61   0.609  -0.336  -0.257
    1UNL    H25   62   0.838  -0.426  -0.278
    1UNL    H26   63   1.121  -0.210  -0.258
    1UNL    H27   64   1.013   0.047  -0.138
    1UNL    H28   65   0.790   0.026  -0.091
    1UNL    H29   66  -0.003   0.343   0.054
    1UNL    H30   67   0.035   0.278   0.209
    1UNL    H31   68  -0.040   0.043   0.121
    1UNL    H32   69  -0.266   0.129   0.111
   0.00000   0.00000   0.00000   0.00000   0.00000   0.00000   0.00000   0.00000   0.00000
Generated with MDTraj, t= 83.0
 69
    1UNL     O1    1  -0.283   0.315  -0.078
    1UNL     C1    2  -0.208   0.241  -0.134
    1UNL     C2    3  -0.106   0.137  -0.079
    1UNL     C3    4  -0.170  -0.001  -0.116
    1UNL     C4    5  -0.278  -0.063  -0.063
    1UNL     O2    6  -0.350   0.004   0.041
    1UNL     C5    7  -0.458  -0.074   0.085
    1UNL     O3    8  -0.516  -0.023   0.203
    1UNL     C6    9  -0.610   0.086   0.186
    1UNL     C7   10  -0.547   0.212   0.136
    1UNL     O4   11  -0.536   0.202  -0.007
    1UNL     C8   12  -0.733   0.032   0.109
    1UNL     O5   13  -0.783   0.128   0.017
    1UNL     C9   14  -0.709  -0.100   0.036
    1UNL     O6   15  -0.712  -0.212   0.130
    1UNL    C10   16  -0.570  -0.098  -0.026
    1UNL     O7   17  -0.550  -0.209  -0.107
    1UNL    C11   18   0.032   0.151  -0.149
    1UNL    C12   19   0.154   0.107  -0.072
    1UNL    C13   20   0.173   0.198   0.051
    1UNL    C14   21   0.247   0.133   0.162
    1UNL     O8   22   0.379   0.100   0.129
    1UNL    C15   23   0.390  -0.017   0.063
    1UNL     O9   24   0.298  -0.096   0.057
    1UNL    C16   25   0.519  -0.033  -0.011
    1UNL    C17   26   0.551  -0.143  -0.084
    1UNL    C18   27   0.671  -0.169  -0.156
    1UNL    C19   28   0.691  -0.292  -0.201
    1UNL    C20   29   0.820  -0.327  -0.244
    1UNL    C21   30   0.926  -0.242  -0.235
    1UNL    O10   31   1.054  -0.272  -0.277
    1UNL    C22   32   0.909  -0.115  -0.179
    1UNL    O11   33   1.017  -0.029  -0.168
    1UNL    C23   34   0.779  -0.074  -0.146
    1UNL    C24   35   0.040   0.254   0.102
    1UNL    C25   36  -0.069   0.154   0.075
    1UNL    O12   37  -0.194   0.180   0.146
    1UNL     H1   38  -0.240   0.229  -0.243
    1UNL     H2   39  -0.109  -0.053  -0.187
    1UNL     H3   40  -0.319  -0.158  -0.086
    1UNL     H4   41  -0.411  -0.171   0.123
    1UNL     H5   42  -0.648   0.118   0.290
    1UNL     H6   43  -0.615   0.286   0.162
    1UNL     H7   44  -0.448   0.227   0.178
    1UNL     H8   45  -0.452   0.244  -0.034
    1UNL     H9   46  -0.815   0.019   0.179
    1UNL    H10   47  -0.701   0.173  -0.008
    1UNL    H11   48  -0.786  -0.122  -0.036
    1UNL    H12   49  -0.683  -0.186   0.219
    1UNL    H13   50  -0.569  -0.007  -0.092
    1UNL    H14   51  -0.586  -0.288  -0.060
    1UNL    H15   52   0.028   0.093  -0.239
    1UNL    H16   53   0.043   0.248  -0.183
    1UNL    H17   54   0.247   0.085  -0.127
    1UNL    H18   55   0.135   0.009  -0.030
    1UNL    H19   56   0.230   0.283   0.018
    1UNL    H20   57   0.200   0.038   0.207
    1UNL    H21   58   0.256   0.207   0.243
    1UNL    H22   59   0.582   0.061   0.005
    1UNL    H23   60   0.492  -0.235  -0.081
    1UNL    H24   61   0.611  -0.363  -0.211
    1UNL    H25   62   0.830  -0.420  -0.295
    1UNL    H26   63   1.111  -0.192  -0.256
    1UNL    H27   64   0.997   0.049  -0.116
    1UNL    H28   65   0.765   0.019  -0.088
    1UNL    H29   66   0.016   0.343   0.041
    1UNL    H30   67   0.046   0.284   0.206
    1UNL    H31   68  -0.041   0.058   0.115
    1UNL    H32   69  -0.257   0.115   0.113
   0.00000   0.00000   0.00000   0.00000   0.00000   0.00000   0.00000   0.00000   0.00000
Generated with MDTraj, t= 84.0
 69
    1UNL     O1    1  -0.281   0.298  -0.057
    1UNL     C1    2  -0.204   0.243  -0.128
    1UNL     C2    3  -0.095   0.140  -0.084
    1UNL     C3    4  -0.154  -0.002  -0.114
    1UNL     C4    5  -0.272  -0.044  -0.071
    1UNL     O2    6  -0.355   0.026   0.023
    1UNL     C5    7  -0.453  -0.062   0.079
    1UNL     O3    8  -0.507  -0.015   0.202
    1UNL     C6    9  -0.615   0.083   0.196
    1UNL     C7   10  -0.566   0.215   0.146
    1UNL     O4   11  -0.548   0.213   0.004
    1UNL     C8   12  -0.731   0.023   0.104
    1UNL     O5   13  -0.789   0.122   0.012
    1UNL     C9   14  -0.698  -0.104   0.028
    1UNL     O6   15  -0.694  -0.213   0.122
    1UNL    C10   16  -0.558  -0.106  -0.033
    1UNL     O7   17  -0.516  -0.230  -0.086
    1UNL    C11   18   0.035   0.169  -0.163
    1UNL    C12   19   0.157   0.131  -0.076
    1UNL    C13   20   0.167   0.212   0.054
    1UNL    C14   21   0.251   0.138   0.154
    1UNL     O8   22   0.379   0.110   0.107
    1UNL    C15   23   0.382  -0.017   0.053
    1UNL     O9   24   0.290  -0.094   0.033
    1UNL    C16   25   0.518  -0.051   0.012
    1UNL    C17   26   0.542  -0.163  -0.058
    1UNL    C18   27   0.672  -0.191  -0.115
    1UNL    C19   28   0.697  -0.303  -0.194
    1UNL    C20   29   0.824  -0.335  -0.248
    1UNL    C21   30   0.928  -0.244  -0.240
    1UNL    O10   31   1.050  -0.259  -0.313
    1UNL    C22   32   0.895  -0.120  -0.175
    1UNL    O11   33   0.993  -0.026  -0.176
    1UNL    C23   34   0.777  -0.102  -0.104
    1UNL    C24   35   0.031   0.258   0.104
    1UNL    C25   36  -0.074   0.155   0.077
    1UNL    O12   37  -0.202   0.179   0.151
    1UNL     H1   38  -0.223   0.247  -0.233
    1UNL     H2   39  -0.104  -0.065  -0.189
    1UNL     H3   40  -0.298  -0.142  -0.092
    1UNL     H4   41  -0.402  -0.159   0.108
    1UNL     H5   42  -0.645   0.100   0.301
    1UNL     H6   43  -0.640   0.288   0.156
    1UNL     H7   44  -0.477   0.239   0.210
    1UNL     H8   45  -0.453   0.226  -0.029
    1UNL     H9   46  -0.823  -0.008   0.159
    1UNL    H10   47  -0.721   0.144  -0.064
    1UNL    H11   48  -0.775  -0.126  -0.044
    1UNL    H12   49  -0.663  -0.177   0.209
    1UNL    H13   50  -0.558  -0.038  -0.119
    1UNL    H14   51  -0.541  -0.298  -0.018
    1UNL    H15   52   0.030   0.116  -0.252
    1UNL    H16   53   0.044   0.271  -0.193
    1UNL    H17   54   0.251   0.140  -0.128
    1UNL    H18   55   0.153   0.027  -0.045
    1UNL    H19   56   0.222   0.303   0.032
    1UNL    H20   57   0.198   0.039   0.180
    1UNL    H21   58   0.266   0.190   0.250
    1UNL    H22   59   0.581   0.022   0.047
    1UNL    H23   60   0.459  -0.221  -0.093
    1UNL    H24   61   0.611  -0.369  -0.211
    1UNL    H25   62   0.840  -0.416  -0.318
    1UNL    H26   63   1.103  -0.179  -0.302
    1UNL    H27   64   0.962   0.051  -0.123
    1UNL    H28   65   0.771  -0.013  -0.052
    1UNL    H29   66   0.000   0.349   0.050
    1UNL    H30   67   0.038   0.284   0.209
    1UNL    H31   68  -0.040   0.057   0.116
    1UNL    H32   69  -0.279   0.161   0.089
   0.00000   0.00000   0.00000   0.00000   0.00000   0.00000   0.00000   0.00000   0.00000
Generated with MDTraj, t= 85.0
 69
    1UNL     O1    1  -0.282   0.309  -0.039
    1UNL     C1    2  -0.211   0.260  -0.122
    1UNL     C2    3  -0.101   0.163  -0.079
    1UNL     C3    4  -0.149   0.021  -0.104
    1UNL     C4    5  -0.266  -0.031  -0.061
    1UNL     O2    6  -0.366   0.032   0.010
    1UNL     C5    7  -0.452  -0.064   0.069
    1UNL     O3    8  -0.511  -0.009   0.191
    1UNL     C6    9  -0.627   0.085   0.185
    1UNL     C7   10  -0.594   0.220   0.125
    1UNL     O4   11  -0.566   0.219  -0.015
    1UNL     C8   12  -0.741   0.003   0.110
    1UNL     O5   13  -0.808   0.085   0.008
    1UNL     C9   14  -0.695  -0.124   0.041
    1UNL     O6   15  -0.703  -0.236   0.138
    1UNL    C10   16  -0.559  -0.112  -0.031
    1UNL     O7   17  -0.520  -0.231  -0.099
    1UNL    C11   18   0.025   0.193  -0.159
    1UNL    C12   19   0.166   0.146  -0.094
    1UNL    C13   20   0.184   0.224   0.047
    1UNL    C14   21   0.248   0.130   0.151
    1UNL     O8   22   0.378   0.111   0.115
    1UNL    C15   23   0.387  -0.014   0.057
    1UNL     O9   24   0.297  -0.091   0.034
    1UNL    C16   25   0.527  -0.057   0.024
    1UNL    C17   26   0.558  -0.173  -0.031
    1UNL    C18   27   0.685  -0.200  -0.106
    1UNL    C19   28   0.704  -0.324  -0.179
    1UNL    C20   29   0.817  -0.351  -0.252
    1UNL    C21   30   0.918  -0.247  -0.258
    1UNL    O10   31   1.025  -0.255  -0.343
    1UNL    C22   32   0.906  -0.129  -0.176
    1UNL    O11   33   1.005  -0.038  -0.169
    1UNL    C23   34   0.791  -0.109  -0.105
    1UNL    C24   35   0.046   0.280   0.101
    1UNL    C25   36  -0.064   0.171   0.075
    1UNL    O12   37  -0.173   0.182   0.169
    1UNL     H1   38  -0.225   0.302  -0.217
    1UNL     H2   39  -0.077  -0.041  -0.152
    1UNL     H3   40  -0.307  -0.123  -0.117
    1UNL     H4   41  -0.390  -0.154   0.096
    1UNL     H5   42  -0.649   0.109   0.286
    1UNL     H6   43  -0.678   0.282   0.151
    1UNL     H7   44  -0.497   0.264   0.166
    1UNL     H8   45  -0.465   0.222  -0.023
    1UNL     H9   46  -0.820  -0.039   0.182
    1UNL    H10   47  -0.739   0.142  -0.034
    1UNL    H11   48  -0.761  -0.146  -0.040
    1UNL    H12   49  -0.621  -0.236   0.192
    1UNL    H13   50  -0.555  -0.033  -0.108
    1UNL    H14   51  -0.510  -0.299  -0.031
    1UNL    H15   52   0.019   0.161  -0.255
    1UNL    H16   53   0.026   0.303  -0.168
    1UNL    H17   54   0.243   0.177  -0.160
    1UNL    H18   55   0.167   0.037  -0.082
    1UNL    H19   56   0.253   0.307   0.040
    1UNL    H20   57   0.193   0.033   0.167
    1UNL    H21   58   0.243   0.174   0.251
    1UNL    H22   59   0.598   0.024   0.047
    1UNL    H23   60   0.473  -0.242  -0.030
    1UNL    H24   61   0.631  -0.399  -0.157
    1UNL    H25   62   0.817  -0.439  -0.312
    1UNL    H26   63   1.073  -0.169  -0.322
    1UNL    H27   64   0.987   0.030  -0.097
    1UNL    H28   65   0.794  -0.022  -0.037
    1UNL    H29   66   0.022   0.373   0.048
    1UNL    H30   67   0.045   0.314   0.204
    1UNL    H31   68  -0.011   0.073   0.090
    1UNL    H32   69  -0.250   0.135   0.135
   0.00000   0.00000   0.00000   0.00000   0.00000   0.00000   0.00000   0.00000   0.00000
Generated with MDTraj, t= 86.0
 69
    1UNL     O1    1  -0.313   0.289  -0.049
    1UNL     C1    2  -0.205   0.276  -0.099
    1UNL     C2    3  -0.102   0.168  -0.070
    1UNL     C3    4  -0.158   0.038  -0.112
    1UNL     C4    5  -0.275  -0.007  -0.066
    1UNL     O2    6  -0.368   0.044   0.023
    1UNL     C5    7  -0.460  -0.052   0.075
    1UNL     O3    8  -0.524  -0.002   0.203
    1UNL     C6    9  -0.643   0.076   0.179
    1UNL     C7   10  -0.609   0.207   0.111
    1UNL     O4   11  -0.565   0.180  -0.023
    1UNL     C8   12  -0.751  -0.011   0.096
    1UNL     O5   13  -0.824   0.072  -0.001
    1UNL     C9   14  -0.688  -0.132   0.030
    1UNL     O6   15  -0.664  -0.234   0.137
    1UNL    C10   16  -0.556  -0.102  -0.036
    1UNL     O7   17  -0.502  -0.215  -0.105
    1UNL    C11   18   0.026   0.204  -0.153
    1UNL    C12   19   0.153   0.154  -0.083
    1UNL    C13   20   0.172   0.226   0.056
    1UNL    C14   21   0.264   0.139   0.156
    1UNL     O8   22   0.394   0.119   0.106
    1UNL    C15   23   0.395  -0.009   0.056
    1UNL     O9   24   0.297  -0.082   0.055
    1UNL    C16   25   0.537  -0.045   0.012
    1UNL    C17   26   0.571  -0.169  -0.028
    1UNL    C18   27   0.690  -0.202  -0.102
    1UNL    C19   28   0.696  -0.313  -0.183
    1UNL    C20   29   0.804  -0.348  -0.262
    1UNL    C21   30   0.916  -0.264  -0.257
    1UNL    O10   31   1.021  -0.285  -0.340
    1UNL    C22   32   0.918  -0.143  -0.183
    1UNL    O11   33   1.026  -0.054  -0.190
    1UNL    C23   34   0.804  -0.117  -0.108
    1UNL    C24   35   0.040   0.271   0.122
    1UNL    C25   36  -0.071   0.168   0.088
    1UNL    O12   37  -0.174   0.206   0.173
    1UNL     H1   38  -0.183   0.334  -0.195
    1UNL     H2   39  -0.094  -0.020  -0.179
    1UNL     H3   40  -0.293  -0.115  -0.092
    1UNL     H4   41  -0.398  -0.140   0.104
    1UNL     H5   42  -0.667   0.104   0.276
    1UNL     H6   43  -0.699   0.270   0.098
    1UNL     H7   44  -0.535   0.266   0.180
    1UNL     H8   45  -0.468   0.191  -0.038
    1UNL     H9   46  -0.821  -0.059   0.172
    1UNL    H10   47  -0.753   0.096  -0.056
    1UNL    H11   48  -0.755  -0.163  -0.050
    1UNL    H12   49  -0.615  -0.187   0.206
    1UNL    H13   50  -0.562  -0.020  -0.107
    1UNL    H14   51  -0.497  -0.284  -0.036
    1UNL    H15   52   0.015   0.179  -0.255
    1UNL    H16   53   0.044   0.314  -0.152
    1UNL    H17   54   0.235   0.162  -0.149
    1UNL    H18   55   0.133   0.049  -0.055
    1UNL    H19   56   0.229   0.317   0.039
    1UNL    H20   57   0.207   0.045   0.177
    1UNL    H21   58   0.264   0.174   0.258
    1UNL    H22   59   0.611   0.040   0.020
    1UNL    H23   60   0.490  -0.239  -0.027
    1UNL    H24   61   0.611  -0.378  -0.191
    1UNL    H25   62   0.813  -0.442  -0.319
    1UNL    H26   63   1.071  -0.202  -0.336
    1UNL    H27   64   1.004   0.017  -0.121
    1UNL    H28   65   0.811  -0.038  -0.033
    1UNL    H29   66   0.016   0.372   0.093
    1UNL    H30   67   0.052   0.283   0.230
    1UNL    H31   68  -0.030   0.064   0.113
    1UNL    H32   69  -0.261   0.165   0.141
   0.00000   0.00000   0.00000   0.00000   0.00000   0.00000   0.00000   0.00000   0.00000
Generated with MDTraj, t= 87.0
 69
    1UNL     O1    1  -0.314   0.290  -0.107
    1UNL     C1    2  -0.199   0.295  -0.080
    1UNL     C2    3  -0.113   0.180  -0.054
    1UNL     C3    4  -0.176   0.049  -0.105
    1UNL     C4    5  -0.277  -0.014  -0.044
    1UNL     O2    6  -0.348   0.034   0.063
    1UNL     C5    7  -0.449  -0.055   0.094
    1UNL     O3    8  -0.535  -0.002   0.202
    1UNL     C6    9  -0.653   0.067   0.159
    1UNL     C7   10  -0.620   0.207   0.103
    1UNL     O4   11  -0.598   0.198  -0.041
    1UNL     C8   12  -0.753  -0.026   0.090
    1UNL     O5   13  -0.832   0.052  -0.005
    1UNL     C9   14  -0.679  -0.144   0.017
    1UNL     O6   15  -0.665  -0.257   0.112
    1UNL    C10   16  -0.539  -0.102  -0.026
    1UNL     O7   17  -0.478  -0.213  -0.099
    1UNL    C11   18   0.026   0.205  -0.124
    1UNL    C12   19   0.149   0.144  -0.056
    1UNL    C13   20   0.178   0.229   0.074
    1UNL    C14   21   0.272   0.150   0.168
    1UNL     O8   22   0.397   0.140   0.105
    1UNL    C15   23   0.416   0.012   0.053
    1UNL     O9   24   0.331  -0.071   0.066
    1UNL    C16   25   0.539  -0.029  -0.010
    1UNL    C17   26   0.551  -0.147  -0.069
    1UNL    C18   27   0.675  -0.188  -0.129
    1UNL    C19   28   0.690  -0.309  -0.196
    1UNL    C20   29   0.808  -0.354  -0.253
    1UNL    C21   30   0.919  -0.285  -0.258
    1UNL    O10   31   1.028  -0.319  -0.332
    1UNL    C22   32   0.915  -0.160  -0.187
    1UNL    O11   33   1.035  -0.085  -0.196
    1UNL    C23   34   0.800  -0.113  -0.125
    1UNL    C24   35   0.046   0.264   0.148
    1UNL    C25   36  -0.083   0.186   0.102
    1UNL    O12   37  -0.193   0.232   0.173
    1UNL     H1   38  -0.153   0.388  -0.098
    1UNL     H2   39  -0.125   0.002  -0.188
    1UNL     H3   40  -0.302  -0.109  -0.072
    1UNL     H4   41  -0.403  -0.150   0.131
    1UNL     H5   42  -0.703   0.093   0.246
    1UNL     H6   43  -0.707   0.273   0.129
    1UNL     H7   44  -0.526   0.255   0.154
    1UNL     H8   45  -0.504   0.209  -0.058
    1UNL     H9   46  -0.825  -0.079   0.159
    1UNL    H10   47  -0.766   0.117  -0.054
    1UNL    H11   48  -0.738  -0.174  -0.073
    1UNL    H12   49  -0.654  -0.229   0.205
    1UNL    H13   50  -0.545  -0.024  -0.100
    1UNL    H14   51  -0.489  -0.295  -0.045
    1UNL    H15   52   0.029   0.174  -0.234
    1UNL    H16   53   0.036   0.314  -0.137
    1UNL    H17   54   0.239   0.150  -0.113
    1UNL    H18   55   0.133   0.037  -0.034
    1UNL    H19   56   0.222   0.326   0.044
    1UNL    H20   57   0.231   0.056   0.204
    1UNL    H21   58   0.283   0.196   0.264
    1UNL    H22   59   0.604   0.046  -0.018
    1UNL    H23   60   0.460  -0.205  -0.088
    1UNL    H24   61   0.602  -0.373  -0.199
    1UNL    H25   62   0.816  -0.448  -0.301
    1UNL    H26   63   1.096  -0.249  -0.310
    1UNL    H27   64   1.037  -0.008  -0.132
    1UNL    H28   65   0.811  -0.028  -0.065
    1UNL    H29   66   0.028   0.370   0.144
    1UNL    H30   67   0.067   0.248   0.255
    1UNL    H31   68  -0.078   0.075   0.127
    1UNL    H32   69  -0.272   0.183   0.146
   0.00000   0.00000   0.00000   0.00000   0.00000   0.00000   0.00000   0.00000   0.00000
Generated with MDTraj, t= 88.0
 69
    1UNL     O1    1  -0.317   0.267  -0.132
    1UNL     C1    2  -0.215   0.288  -0.072
    1UNL     C2    3  -0.110   0.188  -0.032
    1UNL     C3    4  -0.153   0.052  -0.069
    1UNL     C4    5  -0.268  -0.002  -0.022
    1UNL     O2    6  -0.367   0.052   0.065
    1UNL     C5    7  -0.458  -0.048   0.099
    1UNL     O3    8  -0.548  -0.014   0.212
    1UNL     C6    9  -0.657   0.061   0.159
    1UNL     C7   10  -0.607   0.186   0.088
    1UNL     O4   11  -0.578   0.156  -0.045
    1UNL     C8   12  -0.754  -0.026   0.077
    1UNL     O5   13  -0.816   0.064  -0.024
    1UNL     C9   14  -0.678  -0.152   0.004
    1UNL     O6   15  -0.687  -0.262   0.086
    1UNL    C10   16  -0.535  -0.112  -0.023
    1UNL     O7   17  -0.458  -0.221  -0.081
    1UNL    C11   18   0.025   0.226  -0.109
    1UNL    C12   19   0.144   0.165  -0.035
    1UNL    C13   20   0.178   0.242   0.090
    1UNL    C14   21   0.280   0.155   0.169
    1UNL     O8   22   0.407   0.140   0.103
    1UNL    C15   23   0.417   0.023   0.044
    1UNL     O9   24   0.326  -0.051   0.044
    1UNL    C16   25   0.544  -0.011  -0.017
    1UNL    C17   26   0.557  -0.128  -0.083
    1UNL    C18   27   0.671  -0.181  -0.155
    1UNL    C19   28   0.670  -0.303  -0.219
    1UNL    C20   29   0.787  -0.360  -0.260
    1UNL    C21   30   0.908  -0.294  -0.252
    1UNL    O10   31   1.021  -0.357  -0.283
    1UNL    C22   32   0.917  -0.159  -0.209
    1UNL    O11   33   1.045  -0.104  -0.202
    1UNL    C23   34   0.795  -0.102  -0.154
    1UNL    C24   35   0.046   0.278   0.162
    1UNL    C25   36  -0.077   0.193   0.122
    1UNL    O12   37  -0.192   0.236   0.188
    1UNL     H1   38  -0.185   0.391  -0.059
    1UNL     H2   39  -0.108   0.009  -0.157
    1UNL     H3   40  -0.302  -0.093  -0.078
    1UNL     H4   41  -0.389  -0.121   0.146
    1UNL     H5   42  -0.707   0.102   0.244
    1UNL     H6   43  -0.682   0.266   0.086
    1UNL     H7   44  -0.520   0.225   0.157
    1UNL     H8   45  -0.497   0.197  -0.077
    1UNL     H9   46  -0.832  -0.069   0.140
    1UNL    H10   47  -0.749   0.106  -0.081
    1UNL    H11   48  -0.726  -0.181  -0.094
    1UNL    H12   49  -0.648  -0.243   0.175
    1UNL    H13   50  -0.534  -0.033  -0.096
    1UNL    H14   51  -0.484  -0.301  -0.032
    1UNL    H15   52   0.009   0.176  -0.216
    1UNL    H16   53   0.044   0.329  -0.146
    1UNL    H17   54   0.234   0.162  -0.094
    1UNL    H18   55   0.133   0.061  -0.001
    1UNL    H19   56   0.225   0.339   0.061
    1UNL    H20   57   0.242   0.062   0.211
    1UNL    H21   58   0.306   0.204   0.261
    1UNL    H22   59   0.607   0.077  -0.047
    1UNL    H23   60   0.463  -0.177  -0.100
    1UNL    H24   61   0.580  -0.361  -0.213
    1UNL    H25   62   0.785  -0.459  -0.305
    1UNL    H26   63   1.093  -0.290  -0.280
    1UNL    H27   64   1.051  -0.038  -0.132
    1UNL    H28   65   0.801   0.001  -0.109
    1UNL    H29   66   0.022   0.380   0.138
    1UNL    H30   67   0.068   0.266   0.269
    1UNL    H31   68  -0.066   0.091   0.166
    1UNL    H32   69  -0.265   0.178   0.160
   0.00000   0.00000   0.00000   0.00000   0.00000   0.00000   0.00000   0.00000   0.00000
Generated with MDTraj, t= 89.0
 69
    1UNL     O1    1  -0.304   0.273  -0.122
    1UNL     C1    2  -0.228   0.267  -0.030
    1UNL     C2    3  -0.108   0.184  -0.017
    1UNL     C3    4  -0.135   0.033  -0.044
    1UNL     C4    5  -0.245  -0.035  -0.003
    1UNL     O2    6  -0.338   0.016   0.091
    1UNL     C5    7  -0.448  -0.065   0.103
    1UNL     O3    8  -0.549  -0.015   0.196
    1UNL     C6    9  -0.657   0.074   0.137
    1UNL     C7   10  -0.590   0.193   0.070
    1UNL     O4   11  -0.567   0.170  -0.068
    1UNL     C8   12  -0.747  -0.014   0.052
    1UNL     O5   13  -0.808   0.070  -0.054
    1UNL     C9   14  -0.670  -0.149   0.003
    1UNL     O6   15  -0.685  -0.250   0.097
    1UNL    C10   16  -0.521  -0.119  -0.027
    1UNL     O7   17  -0.457  -0.248  -0.066
    1UNL    C11   18   0.006   0.242  -0.106
    1UNL    C12   19   0.146   0.202  -0.056
    1UNL    C13   20   0.177   0.261   0.082
    1UNL    C14   21   0.269   0.167   0.162
    1UNL     O8   22   0.399   0.150   0.105
    1UNL    C15   23   0.403   0.037   0.024
    1UNL     O9   24   0.301  -0.023   0.002
    1UNL    C16   25   0.533  -0.012  -0.029
    1UNL    C17   26   0.543  -0.113  -0.113
    1UNL    C18   27   0.667  -0.165  -0.154
    1UNL    C19   28   0.659  -0.292  -0.204
    1UNL    C20   29   0.761  -0.370  -0.248
    1UNL    C21   30   0.884  -0.304  -0.240
    1UNL    O10   31   1.003  -0.360  -0.286
    1UNL    C22   32   0.905  -0.167  -0.194
    1UNL    O11   33   1.034  -0.113  -0.198
    1UNL    C23   34   0.789  -0.099  -0.148
    1UNL    C24   35   0.050   0.292   0.159
    1UNL    C25   36  -0.059   0.188   0.133
    1UNL    O12   37  -0.164   0.194   0.223
    1UNL     H1   38  -0.269   0.312   0.065
    1UNL     H2   39  -0.071  -0.019  -0.112
    1UNL     H3   40  -0.248  -0.147  -0.026
    1UNL     H4   41  -0.406  -0.154   0.155
    1UNL     H5   42  -0.709   0.114   0.227
    1UNL     H6   43  -0.659   0.276   0.087
    1UNL     H7   44  -0.494   0.221   0.127
    1UNL     H8   45  -0.477   0.208  -0.091
    1UNL     H9   46  -0.820  -0.047   0.121
    1UNL    H10   47  -0.731   0.076  -0.115
    1UNL    H11   48  -0.719  -0.184  -0.093
    1UNL    H12   49  -0.626  -0.228   0.172
    1UNL    H13   50  -0.512  -0.049  -0.108
    1UNL    H14   51  -0.511  -0.313  -0.017
    1UNL    H15   52   0.000   0.205  -0.218
    1UNL    H16   53  -0.008   0.353  -0.119
    1UNL    H17   54   0.227   0.223  -0.125
    1UNL    H18   55   0.143   0.094  -0.055
    1UNL    H19   56   0.238   0.353   0.068
    1UNL    H20   57   0.222   0.072   0.193
    1UNL    H21   58   0.287   0.208   0.262
    1UNL    H22   59   0.624   0.050  -0.020
    1UNL    H23   60   0.447  -0.141  -0.159
    1UNL    H24   61   0.560  -0.339  -0.197
    1UNL    H25   62   0.751  -0.472  -0.282
    1UNL    H26   63   1.079  -0.300  -0.271
    1UNL    H27   64   1.042  -0.045  -0.132
    1UNL    H28   65   0.810  -0.004  -0.109
    1UNL    H29   66   0.009   0.385   0.124
    1UNL    H30   67   0.069   0.297   0.268
    1UNL    H31   68  -0.010   0.092   0.146
    1UNL    H32   69  -0.226   0.125   0.186
   0.00000   0.00000   0.00000   0.00000   0.00000   0.00000   0.00000   0.00000   0.00000
Generated with MDTraj, t= 90.0
 69
    1UNL     O1    1  -0.285   0.282  -0.101
    1UNL     C1    2  -0.224   0.253  -0.002
    1UNL     C2    3  -0.101   0.163   0.001
    1UNL     C3    4  -0.140   0.030  -0.044
    1UNL     C4    5  -0.245  -0.040   0.004
    1UNL     O2    6  -0.341   0.011   0.095
    1UNL     C5    7  -0.451  -0.068   0.115
    1UNL     O3    8  -0.551  -0.003   0.196
    1UNL     C6    9  -0.647   0.089   0.126
    1UNL     C7   10  -0.572   0.200   0.053
    1UNL     O4   11  -0.515   0.149  -0.075
    1UNL     C8   12  -0.727  -0.009   0.037
    1UNL     O5   13  -0.768   0.059  -0.085
    1UNL     C9   14  -0.664  -0.150   0.001
    1UNL     O6   15  -0.676  -0.251   0.098
    1UNL    C10   16  -0.514  -0.118  -0.018
    1UNL     O7   17  -0.442  -0.242  -0.060
    1UNL    C11   18  -0.010   0.228  -0.104
    1UNL    C12   19   0.137   0.230  -0.061
    1UNL    C13   20   0.168   0.287   0.082
    1UNL    C14   21   0.270   0.186   0.146
    1UNL     O8   22   0.393   0.177   0.081
    1UNL    C15   23   0.387   0.062   0.002
    1UNL     O9   24   0.288  -0.003  -0.023
    1UNL    C16   25   0.516   0.012  -0.048
    1UNL    C17   26   0.513  -0.114  -0.097
    1UNL    C18   27   0.640  -0.185  -0.143
    1UNL    C19   28   0.641  -0.308  -0.209
    1UNL    C20   29   0.763  -0.370  -0.254
    1UNL    C21   30   0.881  -0.303  -0.240
    1UNL    O10   31   1.002  -0.361  -0.291
    1UNL    C22   32   0.884  -0.170  -0.182
    1UNL    O11   33   1.012  -0.115  -0.186
    1UNL    C23   34   0.765  -0.116  -0.137
    1UNL    C24   35   0.037   0.300   0.165
    1UNL    C25   36  -0.047   0.163   0.150
    1UNL    O12   37  -0.150   0.140   0.249
    1UNL     H1   38  -0.267   0.272   0.089
    1UNL     H2   39  -0.053  -0.018  -0.088
    1UNL     H3   40  -0.263  -0.134  -0.034
    1UNL     H4   41  -0.413  -0.154   0.175
    1UNL     H5   42  -0.716   0.138   0.203
    1UNL     H6   43  -0.633   0.283   0.032
    1UNL     H7   44  -0.508   0.241   0.135
    1UNL     H8   45  -0.432   0.196  -0.099
    1UNL     H9   46  -0.816  -0.038   0.085
    1UNL    H10   47  -0.695   0.126  -0.112
    1UNL    H11   48  -0.711  -0.191  -0.093
    1UNL    H12   49  -0.671  -0.211   0.187
    1UNL    H13   50  -0.496  -0.044  -0.094
    1UNL    H14   51  -0.497  -0.318  -0.027
    1UNL    H15   52  -0.035   0.182  -0.207
    1UNL    H16   53  -0.038   0.339  -0.125
    1UNL    H17   54   0.181   0.287  -0.144
    1UNL    H18   55   0.174   0.135  -0.073
    1UNL    H19   56   0.224   0.383   0.069
    1UNL    H20   57   0.233   0.083   0.175
    1UNL    H21   58   0.294   0.225   0.249
    1UNL    H22   59   0.594   0.075  -0.050
    1UNL    H23   60   0.413  -0.149  -0.107
    1UNL    H24   61   0.545  -0.355  -0.209
    1UNL    H25   62   0.765  -0.474  -0.282
    1UNL    H26   63   1.073  -0.290  -0.285
    1UNL    H27   64   1.023  -0.044  -0.121
    1UNL    H28   65   0.769  -0.026  -0.078
    1UNL    H29   66  -0.027   0.379   0.129
    1UNL    H30   67   0.056   0.325   0.270
    1UNL    H31   68   0.027   0.087   0.163
    1UNL    H32   69  -0.224   0.093   0.206
   0.00000   0.00000   0.00000   0.00000   0.00000   0.00000   0.00000   0.00000   0.00000
Generated with MDTraj, t= 91.0
 69
    1UNL     O1    1  -0.274   0.312  -0.077
    1UNL     C1    2  -0.233   0.264   0.024
    1UNL     C2    3  -0.103   0.186   0.010
    1UNL     C3    4  -0.139   0.049  -0.042
    1UNL     C4    5  -0.241  -0.026  -0.003
    1UNL     O2    6  -0.340   0.006   0.096
    1UNL     C5    7  -0.452  -0.076   0.115
    1UNL     O3    8  -0.559  -0.013   0.188
    1UNL     C6    9  -0.654   0.074   0.111
    1UNL     C7   10  -0.575   0.184   0.049
    1UNL     O4   11  -0.511   0.157  -0.077
    1UNL     C8   12  -0.731  -0.022   0.016
    1UNL     O5   13  -0.762   0.047  -0.109
    1UNL     C9   14  -0.664  -0.161  -0.011
    1UNL     O6   15  -0.690  -0.243   0.098
    1UNL    C10   16  -0.510  -0.140  -0.011
    1UNL     O7   17  -0.438  -0.268  -0.040
    1UNL    C11   18  -0.005   0.255  -0.091
    1UNL    C12   19   0.148   0.235  -0.072
    1UNL    C13   20   0.181   0.291   0.075
    1UNL    C14   21   0.297   0.225   0.133
    1UNL     O8   22   0.394   0.192   0.032
    1UNL    C15   23   0.385   0.057   0.005
    1UNL     O9   24   0.293  -0.014   0.039
    1UNL    C16   25   0.498   0.002  -0.071
    1UNL    C17   26   0.511  -0.130  -0.093
    1UNL    C18   27   0.633  -0.180  -0.151
    1UNL    C19   28   0.631  -0.307  -0.209
    1UNL    C20   29   0.745  -0.374  -0.259
    1UNL    C21   30   0.870  -0.303  -0.242
    1UNL    O10   31   0.984  -0.359  -0.291
    1UNL    C22   32   0.876  -0.173  -0.183
    1UNL    O11   33   0.999  -0.117  -0.166
    1UNL    C23   34   0.761  -0.113  -0.141
    1UNL    C24   35   0.059   0.283   0.176
    1UNL    C25   36  -0.035   0.168   0.146
    1UNL    O12   37  -0.128   0.135   0.248
    1UNL     H1   38  -0.284   0.288   0.121
    1UNL     H2   39  -0.070   0.016  -0.118
    1UNL     H3   40  -0.251  -0.126  -0.048
    1UNL     H4   41  -0.414  -0.157   0.183
    1UNL     H5   42  -0.728   0.129   0.185
    1UNL     H6   43  -0.641   0.264   0.037
    1UNL     H7   44  -0.510   0.218   0.130
    1UNL     H8   45  -0.436   0.219  -0.080
    1UNL     H9   46  -0.829  -0.050   0.050
    1UNL    H10   47  -0.689   0.070  -0.161
    1UNL    H11   48  -0.705  -0.215  -0.099
    1UNL    H12   49  -0.669  -0.197   0.183
    1UNL    H13   50  -0.483  -0.068  -0.087
    1UNL    H14   51  -0.482  -0.348  -0.007
    1UNL    H15   52  -0.037   0.243  -0.199
    1UNL    H16   53  -0.033   0.368  -0.075
    1UNL    H17   54   0.212   0.284  -0.145
    1UNL    H18   55   0.171   0.129  -0.084
    1UNL    H19   56   0.200   0.398   0.054
    1UNL    H20   57   0.259   0.129   0.179
    1UNL    H21   58   0.345   0.274   0.224
    1UNL    H22   59   0.581   0.076  -0.098
    1UNL    H23   60   0.428  -0.198  -0.069
    1UNL    H24   61   0.548  -0.379  -0.198
    1UNL    H25   62   0.738  -0.481  -0.284
    1UNL    H26   63   1.055  -0.302  -0.258
    1UNL    H27   64   0.998  -0.058  -0.085
    1UNL    H28   65   0.770  -0.018  -0.090
    1UNL    H29   66   0.004   0.377   0.176
    1UNL    H30   67   0.094   0.269   0.279
    1UNL    H31   68   0.026   0.082   0.129
    1UNL    H32   69  -0.208   0.081   0.218
   0.00000   0.00000   0.00000   0.00000   0.00000   0.00000   0.00000   0.00000   0.00000
Generated with MDTraj, t= 92.0
 69
    1UNL     O1    1  -0.297   0.322  -0.052
    1UNL     C1    2  -0.219   0.276   0.026
    1UNL     C2    3  -0.097   0.187   0.006
    1UNL     C3    4  -0.141   0.048  -0.035
    1UNL     C4    5  -0.251  -0.011   0.003
    1UNL     O2    6  -0.353   0.030   0.093
    1UNL     C5    7  -0.450  -0.070   0.114
    1UNL     O3    8  -0.568  -0.023   0.186
    1UNL     C6    9  -0.662   0.057   0.101
    1UNL     C7   10  -0.603   0.179   0.047
    1UNL     O4   11  -0.534   0.156  -0.072
    1UNL     C8   12  -0.724  -0.038  -0.000
    1UNL     O5   13  -0.757   0.033  -0.121
    1UNL     C9   14  -0.645  -0.170  -0.016
    1UNL     O6   15  -0.677  -0.253   0.093
    1UNL    C10   16  -0.494  -0.139  -0.015
    1UNL     O7   17  -0.417  -0.259  -0.041
    1UNL    C11   18  -0.003   0.253  -0.105
    1UNL    C12   19   0.144   0.235  -0.067
    1UNL    C13   20   0.185   0.297   0.074
    1UNL    C14   21   0.315   0.239   0.125
    1UNL     O8   22   0.410   0.194   0.029
    1UNL    C15   23   0.398   0.061   0.022
    1UNL     O9   24   0.314   0.000   0.083
    1UNL    C16   25   0.496   0.007  -0.070
    1UNL    C17   26   0.513  -0.123  -0.098
    1UNL    C18   27   0.630  -0.192  -0.149
    1UNL    C19   28   0.624  -0.313  -0.223
    1UNL    C20   29   0.738  -0.374  -0.263
    1UNL    C21   30   0.861  -0.316  -0.249
    1UNL    O10   31   0.978  -0.369  -0.290
    1UNL    C22   32   0.868  -0.187  -0.185
    1UNL    O11   33   0.991  -0.119  -0.176
    1UNL    C23   34   0.753  -0.134  -0.135
    1UNL    C24   35   0.061   0.285   0.177
    1UNL    C25   36  -0.029   0.168   0.150
    1UNL    O12   37  -0.138   0.153   0.249
    1UNL     H1   38  -0.242   0.304   0.131
    1UNL     H2   39  -0.091   0.005  -0.120
    1UNL     H3   40  -0.273  -0.108  -0.055
    1UNL     H4   41  -0.398  -0.146   0.180
    1UNL     H5   42  -0.736   0.097   0.184
    1UNL     H6   43  -0.685   0.240   0.031
    1UNL     H7   44  -0.546   0.234   0.123
    1UNL     H8   45  -0.442   0.196  -0.069
    1UNL     H9   46  -0.817  -0.073   0.050
    1UNL    H10   47  -0.683   0.095  -0.134
    1UNL    H11   48  -0.681  -0.218  -0.107
    1UNL    H12   49  -0.633  -0.221   0.174
    1UNL    H13   50  -0.478  -0.067  -0.092
    1UNL    H14   51  -0.459  -0.338  -0.004
    1UNL    H15   52  -0.034   0.233  -0.211
    1UNL    H16   53  -0.021   0.370  -0.102
    1UNL    H17   54   0.210   0.262  -0.145
    1UNL    H18   55   0.159   0.126  -0.045
    1UNL    H19   56   0.198   0.405   0.055
    1UNL    H20   57   0.296   0.153   0.192
    1UNL    H21   58   0.366   0.312   0.194
    1UNL    H22   59   0.576   0.080  -0.077
    1UNL    H23   60   0.434  -0.186  -0.064
    1UNL    H24   61   0.533  -0.362  -0.221
    1UNL    H25   62   0.739  -0.469  -0.309
    1UNL    H26   63   1.044  -0.292  -0.292
    1UNL    H27   64   0.985  -0.050  -0.102
    1UNL    H28   65   0.757  -0.037  -0.092
    1UNL    H29   66   0.001   0.377   0.181
    1UNL    H30   67   0.101   0.269   0.276
    1UNL    H31   68   0.029   0.077   0.148
    1UNL    H32   69  -0.212   0.096   0.219
   0.00000   0.00000   0.00000   0.00000   0.00000   0.00000   0.00000   0.00000   0.00000
Generated with MDTraj, t= 93.0
 69
    1UNL     O1    1  -0.290   0.296  -0.096
    1UNL     C1    2  -0.229   0.280   0.006
    1UNL     C2    3  -0.103   0.193   0.016
    1UNL     C3    4  -0.138   0.050  -0.029
    1UNL     C4    5  -0.251  -0.015   0.010
    1UNL     O2    6  -0.338   0.032   0.109
    1UNL     C5    7  -0.442  -0.060   0.114
    1UNL     O3    8  -0.559  -0.008   0.189
    1UNL     C6    9  -0.661   0.049   0.108
    1UNL     C7   10  -0.628   0.180   0.043
    1UNL     O4   11  -0.555   0.157  -0.082
    1UNL     C8   12  -0.730  -0.048   0.012
    1UNL     O5   13  -0.764   0.014  -0.119
    1UNL     C9   14  -0.637  -0.168  -0.013
    1UNL     O6   15  -0.645  -0.280   0.076
    1UNL    C10   16  -0.487  -0.125  -0.018
    1UNL     O7   17  -0.408  -0.237  -0.070
    1UNL    C11   18  -0.001   0.249  -0.089
    1UNL    C12   19   0.144   0.228  -0.052
    1UNL    C13   20   0.186   0.298   0.083
    1UNL    C14   21   0.303   0.235   0.154
    1UNL     O8   22   0.403   0.204   0.058
    1UNL    C15   23   0.400   0.073   0.021
    1UNL     O9   24   0.306   0.004   0.048
    1UNL    C16   25   0.514   0.012  -0.040
    1UNL    C17   26   0.520  -0.115  -0.078
    1UNL    C18   27   0.633  -0.177  -0.141
    1UNL    C19   28   0.619  -0.299  -0.202
    1UNL    C20   29   0.722  -0.367  -0.258
    1UNL    C21   30   0.853  -0.324  -0.260
    1UNL    O10   31   0.958  -0.392  -0.318
    1UNL    C22   32   0.869  -0.202  -0.199
    1UNL    O11   33   0.997  -0.143  -0.196
    1UNL    C23   34   0.762  -0.130  -0.138
    1UNL    C24   35   0.060   0.310   0.180
    1UNL    C25   36  -0.031   0.186   0.155
    1UNL    O12   37  -0.132   0.158   0.265
    1UNL     H1   38  -0.265   0.318   0.094
    1UNL     H2   39  -0.069  -0.005  -0.090
    1UNL     H3   40  -0.275  -0.102  -0.040
    1UNL     H4   41  -0.404  -0.137   0.187
    1UNL     H5   42  -0.736   0.077   0.191
    1UNL     H6   43  -0.718   0.227   0.019
    1UNL     H7   44  -0.583   0.250   0.118
    1UNL     H8   45  -0.467   0.194  -0.079
    1UNL     H9   46  -0.822  -0.094   0.061
    1UNL    H10   47  -0.676   0.055  -0.154
    1UNL    H11   48  -0.656  -0.203  -0.112
    1UNL    H12   49  -0.666  -0.246   0.167
    1UNL    H13   50  -0.481  -0.049  -0.093
    1UNL    H14   51  -0.458  -0.319  -0.046
    1UNL    H15   52  -0.019   0.204  -0.190
    1UNL    H16   53  -0.019   0.360  -0.112
    1UNL    H17   54   0.209   0.258  -0.128
    1UNL    H18   55   0.157   0.115  -0.039
    1UNL    H19   56   0.230   0.398   0.061
    1UNL    H20   57   0.269   0.146   0.202
    1UNL    H21   58   0.349   0.301   0.231
    1UNL    H22   59   0.596   0.073  -0.042
    1UNL    H23   60   0.440  -0.182  -0.045
    1UNL    H24   61   0.516  -0.344  -0.203
    1UNL    H25   62   0.719  -0.475  -0.286
    1UNL    H26   63   1.038  -0.345  -0.292
    1UNL    H27   64   1.010  -0.083  -0.117
    1UNL    H28   65   0.785  -0.031  -0.100
    1UNL    H29   66   0.001   0.399   0.156
    1UNL    H30   67   0.086   0.312   0.284
    1UNL    H31   68   0.037   0.099   0.155
    1UNL    H32   69  -0.203   0.104   0.223
   0.00000   0.00000   0.00000   0.00000   0.00000   0.00000   0.00000   0.00000   0.00000
Generated with MDTraj, t= 94.0
 69
    1UNL     O1    1  -0.296   0.275  -0.101
    1UNL     C1    2  -0.232   0.271   0.001
    1UNL     C2    3  -0.094   0.192   0.012
    1UNL     C3    4  -0.115   0.051  -0.021
    1UNL     C4    5  -0.229  -0.022   0.007
    1UNL     O2    6  -0.331   0.030   0.084
    1UNL     C5    7  -0.432  -0.066   0.104
    1UNL     O3    8  -0.547  -0.012   0.190
    1UNL     C6    9  -0.646   0.046   0.108
    1UNL     C7   10  -0.599   0.172   0.036
    1UNL     O4   11  -0.547   0.134  -0.090
    1UNL     C8   12  -0.722  -0.054   0.025
    1UNL     O5   13  -0.805   0.003  -0.085
    1UNL     C9   14  -0.633  -0.169  -0.030
    1UNL     O6   15  -0.640  -0.272   0.071
    1UNL    C10   16  -0.486  -0.125  -0.032
    1UNL     O7   17  -0.415  -0.241  -0.076
    1UNL    C11   18   0.008   0.253  -0.086
    1UNL    C12   19   0.156   0.249  -0.046
    1UNL    C13   20   0.182   0.294   0.096
    1UNL    C14   21   0.281   0.209   0.168
    1UNL     O8   22   0.406   0.191   0.110
    1UNL    C15   23   0.405   0.075   0.037
    1UNL     O9   24   0.303   0.011   0.019
    1UNL    C16   25   0.540   0.025  -0.010
    1UNL    C17   26   0.535  -0.094  -0.071
    1UNL    C18   27   0.636  -0.171  -0.136
    1UNL    C19   28   0.605  -0.298  -0.187
    1UNL    C20   29   0.704  -0.374  -0.245
    1UNL    C21   30   0.832  -0.321  -0.267
    1UNL    O10   31   0.922  -0.403  -0.329
    1UNL    C22   32   0.870  -0.198  -0.206
    1UNL    O11   33   1.000  -0.161  -0.217
    1UNL    C23   34   0.772  -0.119  -0.146
    1UNL    C24   35   0.056   0.318   0.176
    1UNL    C25   36  -0.043   0.205   0.158
    1UNL    O12   37  -0.160   0.219   0.248
    1UNL     H1   38  -0.273   0.344   0.078
    1UNL     H2   39  -0.024  -0.002  -0.051
    1UNL     H3   40  -0.219  -0.130   0.003
    1UNL     H4   41  -0.390  -0.151   0.162
    1UNL     H5   42  -0.724   0.080   0.178
    1UNL     H6   43  -0.677   0.246   0.029
    1UNL     H7   44  -0.517   0.228   0.096
    1UNL     H8   45  -0.470   0.192  -0.113
    1UNL     H9   46  -0.801  -0.114   0.086
    1UNL    H10   47  -0.750   0.027  -0.157
    1UNL    H11   48  -0.659  -0.211  -0.125
    1UNL    H12   49  -0.655  -0.227   0.158
    1UNL    H13   50  -0.469  -0.056  -0.112
    1UNL    H14   51  -0.460  -0.323  -0.042
    1UNL    H15   52   0.002   0.202  -0.188
    1UNL    H16   53  -0.024   0.354  -0.110
    1UNL    H17   54   0.210   0.304  -0.115
    1UNL    H18   55   0.188   0.141  -0.054
    1UNL    H19   56   0.239   0.391   0.095
    1UNL    H20   57   0.239   0.113   0.176
    1UNL    H21   58   0.293   0.255   0.267
    1UNL    H22   59   0.641   0.080  -0.005
    1UNL    H23   60   0.440  -0.144  -0.069
    1UNL    H24   61   0.506  -0.333  -0.195
    1UNL    H25   62   0.679  -0.469  -0.282
    1UNL    H26   63   1.005  -0.359  -0.361
    1UNL    H27   64   1.024  -0.097  -0.146
    1UNL    H28   65   0.803  -0.023  -0.112
    1UNL    H29   66   0.011   0.413   0.141
    1UNL    H30   67   0.075   0.331   0.281
    1UNL    H31   68   0.013   0.113   0.192
    1UNL    H32   69  -0.226   0.155   0.208
   0.00000   0.00000   0.00000   0.00000   0.00000   0.00000   0.00000   0.00000   0.00000
Generated with MDTraj, t= 95.0
 69
    1UNL     O1    1  -0.289   0.261  -0.145
    1UNL     C1    2  -0.224   0.274  -0.045
    1UNL     C2    3  -0.092   0.210  -0.012
    1UNL     C3    4  -0.114   0.062  -0.044
    1UNL     C4    5  -0.213  -0.015   0.003
    1UNL     O2    6  -0.324   0.030   0.070
    1UNL     C5    7  -0.418  -0.073   0.104
    1UNL     O3    8  -0.527  -0.024   0.196
    1UNL     C6    9  -0.639   0.045   0.125
    1UNL     C7   10  -0.572   0.167   0.051
    1UNL     O4   11  -0.536   0.130  -0.078
    1UNL     C8   12  -0.719  -0.053   0.037
    1UNL     O5   13  -0.780   0.006  -0.088
    1UNL     C9   14  -0.625  -0.164  -0.018
    1UNL     O6   15  -0.648  -0.279   0.065
    1UNL    C10   16  -0.476  -0.135  -0.026
    1UNL     O7   17  -0.407  -0.250  -0.072
    1UNL    C11   18   0.022   0.282  -0.090
    1UNL    C12   19   0.156   0.239  -0.032
    1UNL    C13   20   0.178   0.292   0.114
    1UNL    C14   21   0.276   0.205   0.196
    1UNL     O8   22   0.401   0.184   0.141
    1UNL    C15   23   0.397   0.069   0.064
    1UNL     O9   24   0.293   0.008   0.044
    1UNL    C16   25   0.521   0.014  -0.004
    1UNL    C17   26   0.519  -0.103  -0.073
    1UNL    C18   27   0.632  -0.168  -0.143
    1UNL    C19   28   0.594  -0.294  -0.190
    1UNL    C20   29   0.693  -0.375  -0.247
    1UNL    C21   30   0.823  -0.326  -0.264
    1UNL    O10   31   0.923  -0.403  -0.328
    1UNL    C22   32   0.863  -0.195  -0.214
    1UNL    O11   33   0.989  -0.153  -0.245
    1UNL    C23   34   0.768  -0.129  -0.142
    1UNL    C24   35   0.035   0.329   0.188
    1UNL    C25   36  -0.066   0.223   0.146
    1UNL    O12   37  -0.185   0.228   0.229
    1UNL     H1   38  -0.265   0.334   0.034
    1UNL     H2   39  -0.047   0.021  -0.116
    1UNL     H3   40  -0.219  -0.122  -0.037
    1UNL     H4   41  -0.348  -0.148   0.149
    1UNL     H5   42  -0.685   0.081   0.213
    1UNL     H6   43  -0.628   0.262   0.037
    1UNL     H7   44  -0.476   0.201   0.109
    1UNL     H8   45  -0.447   0.170  -0.104
    1UNL     H9   46  -0.804  -0.096   0.106
    1UNL    H10   47  -0.733   0.093  -0.100
    1UNL    H11   48  -0.666  -0.186  -0.115
    1UNL    H12   49  -0.657  -0.250   0.157
    1UNL    H13   50  -0.457  -0.061  -0.102
    1UNL    H14   51  -0.438  -0.325  -0.019
    1UNL    H15   52   0.014   0.256  -0.200
    1UNL    H16   53   0.005   0.386  -0.091
    1UNL    H17   54   0.238   0.257  -0.096
    1UNL    H18   55   0.150   0.130  -0.029
    1UNL    H19   56   0.228   0.391   0.103
    1UNL    H20   57   0.230   0.112   0.213
    1UNL    H21   58   0.297   0.265   0.287
    1UNL    H22   59   0.606   0.080  -0.001
    1UNL    H23   60   0.420  -0.148  -0.087
    1UNL    H24   61   0.485  -0.310  -0.201
    1UNL    H25   62   0.665  -0.467  -0.301
    1UNL    H26   63   1.008  -0.353  -0.329
    1UNL    H27   64   1.019  -0.080  -0.192
    1UNL    H28   65   0.786  -0.023  -0.124
    1UNL    H29   66   0.006   0.433   0.172
    1UNL    H30   67   0.046   0.320   0.295
    1UNL    H31   68  -0.011   0.125   0.167
    1UNL    H32   69  -0.244   0.168   0.183
   0.00000   0.00000   0.00000   0.00000   0.00000   0.00000   0.00000   0.00000   0.00000
Generated with MDTraj, t= 96.0
 69
    1UNL     O1    1  -0.277   0.287  -0.151
    1UNL     C1    2  -0.210   0.301  -0.054
    1UNL     C2    3  -0.098   0.209  -0.024
    1UNL     C3    4  -0.123   0.069  -0.076
    1UNL     C4    5  -0.212  -0.014  -0.028
    1UNL     O2    6  -0.304   0.026   0.065
    1UNL     C5    7  -0.398  -0.074   0.100
    1UNL     O3    8  -0.504  -0.034   0.192
    1UNL     C6    9  -0.610   0.054   0.135
    1UNL     C7   10  -0.552   0.180   0.064
    1UNL     O4   11  -0.522   0.146  -0.070
    1UNL     C8   12  -0.693  -0.046   0.037
    1UNL     O5   13  -0.755   0.011  -0.079
    1UNL     C9   14  -0.609  -0.170  -0.009
    1UNL     O6   15  -0.627  -0.282   0.086
    1UNL    C10   16  -0.457  -0.135  -0.026
    1UNL     O7   17  -0.393  -0.251  -0.072
    1UNL    C11   18   0.031   0.263  -0.100
    1UNL    C12   19   0.156   0.217  -0.025
    1UNL    C13   20   0.179   0.290   0.109
    1UNL    C14   21   0.269   0.201   0.193
    1UNL     O8   22   0.389   0.174   0.124
    1UNL    C15   23   0.382   0.048   0.074
    1UNL     O9   24   0.291  -0.030   0.088
    1UNL    C16   25   0.497  -0.003   0.005
    1UNL    C17   26   0.491  -0.116  -0.065
    1UNL    C18   27   0.600  -0.174  -0.138
    1UNL    C19   28   0.585  -0.300  -0.190
    1UNL    C20   29   0.689  -0.377  -0.242
    1UNL    C21   30   0.806  -0.304  -0.259
    1UNL    O10   31   0.913  -0.372  -0.323
    1UNL    C22   32   0.825  -0.172  -0.209
    1UNL    O11   33   0.956  -0.129  -0.226
    1UNL    C23   34   0.718  -0.111  -0.148
    1UNL    C24   35   0.031   0.305   0.169
    1UNL    C25   36  -0.071   0.199   0.133
    1UNL    O12   37  -0.191   0.232   0.204
    1UNL     H1   38  -0.228   0.385   0.007
    1UNL     H2   39  -0.051   0.034  -0.150
    1UNL     H3   40  -0.224  -0.114  -0.063
    1UNL     H4   41  -0.334  -0.148   0.153
    1UNL     H5   42  -0.682   0.083   0.208
    1UNL     H6   43  -0.622   0.267   0.063
    1UNL     H7   44  -0.454   0.228   0.108
    1UNL     H8   45  -0.446   0.194  -0.107
    1UNL     H9   46  -0.784  -0.076   0.102
    1UNL    H10   47  -0.681   0.032  -0.148
    1UNL    H11   48  -0.644  -0.206  -0.105
    1UNL    H12   49  -0.579  -0.260   0.168
    1UNL    H13   50  -0.438  -0.063  -0.103
    1UNL    H14   51  -0.414  -0.323  -0.006
    1UNL    H15   52   0.022   0.244  -0.208
    1UNL    H16   53   0.033   0.368  -0.098
    1UNL    H17   54   0.243   0.230  -0.086
    1UNL    H18   55   0.156   0.113  -0.012
    1UNL    H19   56   0.220   0.392   0.094
    1UNL    H20   57   0.214   0.110   0.186
    1UNL    H21   58   0.283   0.238   0.298
    1UNL    H22   59   0.576   0.059  -0.005
    1UNL    H23   60   0.413  -0.183  -0.038
    1UNL    H24   61   0.489  -0.350  -0.191
    1UNL    H25   62   0.670  -0.469  -0.296
    1UNL    H26   63   0.984  -0.307  -0.332
    1UNL    H27   64   0.971  -0.053  -0.171
    1UNL    H28   65   0.718  -0.011  -0.112
    1UNL    H29   66  -0.009   0.404   0.149
    1UNL    H30   67   0.046   0.308   0.276
    1UNL    H31   68  -0.032   0.097   0.160
    1UNL    H32   69  -0.261   0.165   0.183
   0.00000   0.00000   0.00000   0.00000   0.00000   0.00000   0.00000   0.00000   0.00000
Generated with MDTraj, t= 97.0
 69
    1UNL     O1    1  -0.267   0.306  -0.155
    1UNL     C1    2  -0.196   0.300  -0.058
    1UNL     C2    3  -0.086   0.203  -0.031
    1UNL     C3    4  -0.125   0.069  -0.088
    1UNL     C4    5  -0.221  -0.008  -0.039
    1UNL     O2    6  -0.299   0.022   0.063
    1UNL     C5    7  -0.395  -0.076   0.084
    1UNL     O3    8  -0.478  -0.030   0.194
    1UNL     C6    9  -0.592   0.046   0.137
    1UNL     C7   10  -0.549   0.161   0.053
    1UNL     O4   11  -0.509   0.123  -0.083
    1UNL     C8   12  -0.685  -0.046   0.044
    1UNL     O5   13  -0.744   0.019  -0.067
    1UNL     C9   14  -0.611  -0.175   0.004
    1UNL     O6   15  -0.597  -0.262   0.117
    1UNL    C10   16  -0.464  -0.140  -0.041
    1UNL     O7   17  -0.391  -0.248  -0.093
    1UNL    C11   18   0.035   0.266  -0.110
    1UNL    C12   19   0.174   0.234  -0.046
    1UNL    C13   20   0.181   0.296   0.101
    1UNL    C14   21   0.265   0.211   0.203
    1UNL     O8   22   0.380   0.157   0.140
    1UNL    C15   23   0.358   0.029   0.093
    1UNL     O9   24   0.254  -0.031   0.109
    1UNL    C16   25   0.463  -0.036   0.023
    1UNL    C17   26   0.466  -0.153  -0.038
    1UNL    C18   27   0.577  -0.196  -0.130
    1UNL    C19   28   0.571  -0.325  -0.188
    1UNL    C20   29   0.685  -0.367  -0.255
    1UNL    C21   30   0.806  -0.297  -0.263
    1UNL    O10   31   0.917  -0.333  -0.327
    1UNL    C22   32   0.810  -0.167  -0.210
    1UNL    O11   33   0.929  -0.094  -0.226
    1UNL    C23   34   0.694  -0.122  -0.142
    1UNL    C24   35   0.041   0.327   0.159
    1UNL    C25   36  -0.052   0.211   0.124
    1UNL    O12   37  -0.167   0.213   0.197
    1UNL     H1   38  -0.212   0.385   0.017
    1UNL     H2   39  -0.076   0.042  -0.181
    1UNL     H3   40  -0.228  -0.109  -0.066
    1UNL     H4   41  -0.341  -0.166   0.124
    1UNL     H5   42  -0.661   0.072   0.216
    1UNL     H6   43  -0.621   0.238   0.024
    1UNL     H7   44  -0.470   0.217   0.117
    1UNL     H8   45  -0.436   0.184  -0.110
    1UNL     H9   46  -0.773  -0.080   0.108
    1UNL    H10   47  -0.670   0.050  -0.116
    1UNL    H11   48  -0.668  -0.235  -0.069
    1UNL    H12   49  -0.544  -0.212   0.184
    1UNL    H13   50  -0.467  -0.077  -0.127
    1UNL    H14   51  -0.397  -0.317  -0.023
    1UNL    H15   52   0.035   0.256  -0.214
    1UNL    H16   53   0.018   0.371  -0.098
    1UNL    H17   54   0.259   0.257  -0.108
    1UNL    H18   55   0.174   0.133  -0.038
    1UNL    H19   56   0.238   0.390   0.086
    1UNL    H20   57   0.205   0.128   0.238
    1UNL    H21   58   0.301   0.270   0.292
    1UNL    H22   59   0.559   0.026   0.016
    1UNL    H23   60   0.390  -0.225  -0.010
    1UNL    H24   61   0.480  -0.378  -0.197
    1UNL    H25   62   0.681  -0.465  -0.298
    1UNL    H26   63   0.985  -0.259  -0.321
    1UNL    H27   64   0.932  -0.022  -0.161
    1UNL    H28   65   0.705  -0.030  -0.089
    1UNL    H29   66   0.006   0.420   0.116
    1UNL    H30   67   0.042   0.351   0.266
    1UNL    H31   68  -0.002   0.119   0.159
    1UNL    H32   69  -0.226   0.135   0.174
   0.00000   0.00000   0.00000   0.00000   0.00000   0.00000   0.00000   0.00000   0.00000
Generated with MDTraj, t= 98.0
 69
    1UNL     O1    1  -0.267   0.268  -0.163
    1UNL     C1    2  -0.201   0.287  -0.065
    1UNL     C2    3  -0.073   0.207  -0.037
    1UNL     C3    4  -0.090   0.064  -0.079
    1UNL     C4    5  -0.189  -0.012  -0.035
    1UNL     O2    6  -0.297   0.034   0.029
    1UNL     C5    7  -0.384  -0.067   0.077
    1UNL     O3    8  -0.468  -0.018   0.175
    1UNL     C6    9  -0.585   0.056   0.129
    1UNL     C7   10  -0.563   0.177   0.048
    1UNL     O4   11  -0.536   0.148  -0.089
    1UNL     C8   12  -0.677  -0.053   0.065
    1UNL     O5   13  -0.740   0.010  -0.041
    1UNL     C9   14  -0.597  -0.177   0.002
    1UNL     O6   15  -0.607  -0.283   0.093
    1UNL    C10   16  -0.448  -0.143  -0.038
    1UNL     O7   17  -0.383  -0.259  -0.067
    1UNL    C11   18   0.041   0.291  -0.103
    1UNL    C12   19   0.179   0.254  -0.041
    1UNL    C13   20   0.190   0.308   0.104
    1UNL    C14   21   0.268   0.196   0.197
    1UNL     O8   22   0.384   0.134   0.148
    1UNL    C15   23   0.348   0.015   0.091
    1UNL     O9   24   0.230  -0.021   0.081
    1UNL    C16   25   0.468  -0.050   0.041
    1UNL    C17   26   0.459  -0.157  -0.039
    1UNL    C18   27   0.578  -0.207  -0.108
    1UNL    C19   28   0.576  -0.336  -0.173
    1UNL    C20   29   0.689  -0.373  -0.236
    1UNL    C21   30   0.790  -0.286  -0.261
    1UNL    O10   31   0.886  -0.307  -0.353
    1UNL    C22   32   0.791  -0.165  -0.198
    1UNL    O11   33   0.898  -0.083  -0.231
    1UNL    C23   34   0.688  -0.119  -0.118
    1UNL    C24   35   0.051   0.331   0.160
    1UNL    C25   36  -0.044   0.209   0.117
    1UNL    O12   37  -0.162   0.214   0.191
    1UNL     H1   38  -0.223   0.367   0.001
    1UNL     H2   39  -0.006   0.011  -0.117
    1UNL     H3   40  -0.188  -0.117  -0.080
    1UNL     H4   41  -0.316  -0.140   0.129
    1UNL     H5   42  -0.639   0.082   0.224
    1UNL     H6   43  -0.649   0.238   0.061
    1UNL     H7   44  -0.471   0.235   0.082
    1UNL     H8   45  -0.443   0.173  -0.119
    1UNL     H9   46  -0.753  -0.088   0.139
    1UNL    H10   47  -0.686   0.076  -0.087
    1UNL    H11   48  -0.658  -0.214  -0.086
    1UNL    H12   49  -0.607  -0.239   0.181
    1UNL    H13   50  -0.444  -0.077  -0.120
    1UNL    H14   51  -0.425  -0.326  -0.009
    1UNL    H15   52   0.049   0.263  -0.201
    1UNL    H16   53   0.025   0.397  -0.097
    1UNL    H17   54   0.253   0.299  -0.104
    1UNL    H18   55   0.191   0.149  -0.046
    1UNL    H19   56   0.254   0.396   0.097
    1UNL    H20   57   0.208   0.111   0.232
    1UNL    H21   58   0.301   0.243   0.296
    1UNL    H22   59   0.557  -0.033   0.100
    1UNL    H23   60   0.367  -0.205  -0.067
    1UNL    H24   61   0.484  -0.400  -0.172
    1UNL    H25   62   0.695  -0.465  -0.296
    1UNL    H26   63   0.941  -0.228  -0.363
    1UNL    H27   64   0.903  -0.001  -0.176
    1UNL    H28   65   0.709  -0.025  -0.061
    1UNL    H29   66   0.010   0.422   0.119
    1UNL    H30   67   0.053   0.349   0.269
    1UNL    H31   68  -0.002   0.116   0.150
    1UNL    H32   69  -0.215   0.139   0.166
   0.00000   0.00000   0.00000   0.00000   0.00000   0.00000   0.00000   0.00000   0.00000
Generated with MDTraj, t= 99.0
 69
    1UNL     O1    1  -0.257   0.240  -0.171
    1UNL     C1    2  -0.188   0.277  -0.083
    1UNL     C2    3  -0.070   0.205  -0.033
    1UNL     C3    4  -0.071   0.059  -0.062
    1UNL     C4    5  -0.182  -0.014  -0.031
    1UNL     O2    6  -0.290   0.038   0.029
    1UNL     C5    7  -0.383  -0.061   0.079
    1UNL     O3    8  -0.478  -0.013   0.183
    1UNL     C6    9  -0.589   0.055   0.130
    1UNL     C7   10  -0.557   0.175   0.046
    1UNL     O4   11  -0.521   0.145  -0.093
    1UNL     C8   12  -0.678  -0.055   0.062
    1UNL     O5   13  -0.757   0.003  -0.037
    1UNL     C9   14  -0.594  -0.173   0.003
    1UNL     O6   15  -0.580  -0.284   0.082
    1UNL    C10   16  -0.449  -0.134  -0.041
    1UNL     O7   17  -0.366  -0.249  -0.075
    1UNL    C11   18   0.049   0.283  -0.093
    1UNL    C12   19   0.187   0.254  -0.021
    1UNL    C13   20   0.186   0.303   0.126
    1UNL    C14   21   0.245   0.191   0.210
    1UNL     O8   22   0.369   0.144   0.164
    1UNL    C15   23   0.350   0.025   0.094
    1UNL     O9   24   0.241  -0.029   0.065
    1UNL    C16   25   0.470  -0.041   0.038
    1UNL    C17   26   0.468  -0.165  -0.016
    1UNL    C18   27   0.573  -0.200  -0.110
    1UNL    C19   28   0.568  -0.324  -0.161
    1UNL    C20   29   0.668  -0.369  -0.244
    1UNL    C21   30   0.782  -0.296  -0.274
    1UNL    O10   31   0.884  -0.327  -0.358
    1UNL    C22   32   0.788  -0.163  -0.220
    1UNL    O11   33   0.900  -0.081  -0.248
    1UNL    C23   34   0.686  -0.122  -0.132
    1UNL    C24   35   0.047   0.332   0.171
    1UNL    C25   36  -0.060   0.222   0.127
    1UNL    O12   37  -0.190   0.239   0.180
    1UNL     H1   38  -0.202   0.379  -0.051
    1UNL     H2   39   0.004   0.027  -0.137
    1UNL     H3   40  -0.194  -0.123  -0.051
    1UNL     H4   41  -0.314  -0.137   0.123
    1UNL     H5   42  -0.640   0.092   0.229
    1UNL     H6   43  -0.644   0.226   0.021
    1UNL     H7   44  -0.489   0.246   0.100
    1UNL     H8   45  -0.429   0.173  -0.112
    1UNL     H9   46  -0.740  -0.080   0.146
    1UNL    H10   47  -0.710   0.024  -0.126
    1UNL    H11   48  -0.649  -0.220  -0.086
    1UNL    H12   49  -0.609  -0.264   0.173
    1UNL    H13   50  -0.443  -0.069  -0.123
    1UNL    H14   51  -0.381  -0.325  -0.013
    1UNL    H15   52   0.064   0.257  -0.191
    1UNL    H16   53   0.029   0.387  -0.090
    1UNL    H17   54   0.265   0.304  -0.072
    1UNL    H18   55   0.205   0.138  -0.023
    1UNL    H19   56   0.245   0.396   0.128
    1UNL    H20   57   0.179   0.105   0.232
    1UNL    H21   58   0.268   0.234   0.312
    1UNL    H22   59   0.558   0.014   0.045
    1UNL    H23   60   0.387  -0.237  -0.013
    1UNL    H24   61   0.493  -0.389  -0.131
    1UNL    H25   62   0.655  -0.458  -0.297
    1UNL    H26   63   0.948  -0.250  -0.361
    1UNL    H27   64   0.891  -0.004  -0.183
    1UNL    H28   65   0.696  -0.036  -0.077
    1UNL    H29   66   0.011   0.418   0.119
    1UNL    H30   67   0.047   0.367   0.276
    1UNL    H31   68  -0.034   0.127   0.166
    1UNL    H32   69  -0.240   0.154   0.168
   0.00000   0.00000   0.00000   0.00000   0.00000   0.00000   0.00000   0.00000   0.00000
