1TPCN05684
23
    1res  C1    1    1.091   0.244  -0.067
    1res  C2    2    0.859   0.164   0.149
    1res  C3    3    0.818  -0.109  -0.026
    1res  C4    4    0.656   0.117  -0.042
    1res  C5    5    0.510   0.040   0.091
    1res  C6    6    0.384  -0.041  -0.221
    1res  C7    7    0.210   0.115   0.077
    1res  C8    8    0.087  -0.190  -0.043
    1res  C9    9   -0.104  -0.075  -0.170
    1res  C10   10   -0.258  -0.095   0.029
    1res  C11   11   -0.463  -0.133  -0.089
    1res  C12   12   -0.503  -0.148  -0.379
    1res  C13   13   -0.723  -0.274  -0.185
    1res  C14   14   -0.737  -0.142  -0.017
    1res  C15   15   -0.843   0.086   0.137
    1res  C16   16   -0.763   0.356   0.257
    1res  C17   17   -0.998   0.330   0.084
    1res  C18   18   -1.135   0.153   0.036
    1res  C19   19   -0.969   0.019  -0.118
    1res  C20   20   -0.592  -0.168   0.157
    1res  C21   21   -0.139  -0.227   0.193
    1res  C22   22    0.231  -0.141   0.200
    1res  C23   23    0.457   0.273  -0.007
  10.00000  10.00000  10.00000
