Generated with MDTraj, t= 0.0
 51
    1UNL     C1    1   0.141  -0.020  -0.193
    1UNL     C2    2   0.180   0.031  -0.054
    1UNL     C3    3   0.252   0.166  -0.068
    1UNL     C4    4   0.267  -0.074   0.013
    1UNL     C5    5   0.404  -0.064   0.029
    1UNL     C6    6   0.477  -0.167   0.084
    1UNL     C7    7   0.414  -0.286   0.123
    1UNL     O1    8   0.485  -0.391   0.178
    1UNL     C8    9   0.277  -0.296   0.106
    1UNL     C9   10   0.202  -0.192   0.053
    1UNL     O2   11   0.063  -0.204   0.037
    1UNL    C10   12  -0.012  -0.088   0.079
    1UNL    C11   13  -0.159  -0.103   0.046
    1UNL    C12   14  -0.253  -0.068   0.141
    1UNL    C13   15  -0.388  -0.083   0.117
    1UNL    C14   16  -0.433  -0.136  -0.004
    1UNL     O3   17  -0.569  -0.151  -0.025
    1UNL    C15   18  -0.339  -0.171  -0.100
    1UNL    C16   19  -0.202  -0.154  -0.078
    1UNL     O4   20  -0.113  -0.183  -0.179
    1UNL    C17   21   0.053   0.049   0.038
    1UNL    C18   22  -0.044   0.155  -0.012
    1UNL    C19   23  -0.053   0.276   0.054
    1UNL    C20   24  -0.138   0.377   0.010
    1UNL     O5   25  -0.143   0.497   0.079
    1UNL    C21   26  -0.216   0.354  -0.103
    1UNL    C22   27  -0.210   0.233  -0.170
    1UNL     O6   28  -0.289   0.212  -0.282
    1UNL    C23   29  -0.123   0.135  -0.124
    1UNL     H1   30   0.230  -0.045  -0.251
    1UNL     H2   31   0.082  -0.111  -0.184
    1UNL     H3   32   0.084   0.053  -0.249
    1UNL     H4   33   0.186   0.242  -0.110
    1UNL     H5   34   0.287   0.203   0.029
    1UNL     H6   35   0.339   0.158  -0.134
    1UNL     H7   36   0.455   0.026  -0.002
    1UNL     H8   37   0.583  -0.158   0.096
    1UNL     H9   38   0.580  -0.368   0.184
    1UNL    H10   39   0.227  -0.386   0.136
    1UNL    H11   40  -0.006  -0.095   0.189
    1UNL    H12   41  -0.220  -0.027   0.235
    1UNL    H13   42  -0.460  -0.056   0.192
    1UNL    H14   43  -0.584  -0.188  -0.114
    1UNL    H15   44  -0.372  -0.209  -0.194
    1UNL    H16   45  -0.159  -0.230  -0.252
    1UNL    H17   46   0.094   0.091   0.131
    1UNL    H18   47   0.007   0.295   0.141
    1UNL    H19   48  -0.208   0.558   0.036
    1UNL    H20   49  -0.283   0.430  -0.138
    1UNL    H21   50  -0.277   0.121  -0.315
    1UNL    H22   51  -0.119   0.041  -0.174
   0.00000   0.00000   0.00000   0.00000   0.00000   0.00000   0.00000   0.00000   0.00000
Generated with MDTraj, t= 1.0
 51
    1UNL     C1    1   0.138  -0.022  -0.198
    1UNL     C2    2   0.184   0.027  -0.053
    1UNL     C3    3   0.255   0.160  -0.070
    1UNL     C4    4   0.266  -0.077   0.017
    1UNL     C5    5   0.402  -0.063   0.037
    1UNL     C6    6   0.480  -0.166   0.087
    1UNL     C7    7   0.417  -0.281   0.131
    1UNL     O1    8   0.491  -0.395   0.175
    1UNL     C8    9   0.277  -0.294   0.121
    1UNL     C9   10   0.201  -0.195   0.062
    1UNL     O2   11   0.061  -0.199   0.031
    1UNL    C10   12  -0.014  -0.087   0.079
    1UNL    C11   13  -0.157  -0.102   0.050
    1UNL    C12   14  -0.252  -0.092   0.146
    1UNL    C13   15  -0.389  -0.110   0.122
    1UNL    C14   16  -0.436  -0.137  -0.001
    1UNL     O3   17  -0.576  -0.153  -0.022
    1UNL    C15   18  -0.344  -0.167  -0.100
    1UNL    C16   19  -0.209  -0.143  -0.079
    1UNL     O4   20  -0.107  -0.160  -0.180
    1UNL    C17   21   0.052   0.049   0.037
    1UNL    C18   22  -0.039   0.153  -0.019
    1UNL    C19   23  -0.050   0.273   0.046
    1UNL    C20   24  -0.137   0.380   0.012
    1UNL     O5   25  -0.142   0.502   0.067
    1UNL    C21   26  -0.210   0.354  -0.107
    1UNL    C22   27  -0.208   0.236  -0.175
    1UNL     O6   28  -0.305   0.219  -0.274
    1UNL    C23   29  -0.121   0.138  -0.130
    1UNL     H1   30   0.214  -0.008  -0.272
    1UNL     H2   31   0.120  -0.134  -0.187
    1UNL     H3   32   0.055   0.030  -0.238
    1UNL     H4   33   0.189   0.237  -0.094
    1UNL     H5   34   0.300   0.187   0.026
    1UNL     H6   35   0.340   0.161  -0.137
    1UNL     H7   36   0.461   0.006  -0.028
    1UNL     H8   37   0.583  -0.149   0.101
    1UNL     H9   38   0.582  -0.373   0.165
    1UNL    H10   39   0.241  -0.395   0.119
    1UNL    H11   40   0.008  -0.106   0.189
    1UNL    H12   41  -0.222  -0.070   0.246
    1UNL    H13   42  -0.463  -0.098   0.199
    1UNL    H14   43  -0.593  -0.146  -0.122
    1UNL    H15   44  -0.383  -0.199  -0.195
    1UNL    H16   45  -0.144  -0.196  -0.262
    1UNL    H17   46   0.094   0.098   0.126
    1UNL    H18   47   0.001   0.277   0.142
    1UNL    H19   48  -0.179   0.576   0.009
    1UNL    H20   49  -0.255   0.429  -0.161
    1UNL    H21   50  -0.278   0.147  -0.328
    1UNL    H22   51  -0.117   0.051  -0.181
   0.00000   0.00000   0.00000   0.00000   0.00000   0.00000   0.00000   0.00000   0.00000
Generated with MDTraj, t= 2.0
 51
    1UNL     C1    1   0.140  -0.024  -0.189
    1UNL     C2    2   0.183   0.038  -0.052
    1UNL     C3    3   0.251   0.172  -0.068
    1UNL     C4    4   0.271  -0.074   0.009
    1UNL     C5    5   0.406  -0.057   0.037
    1UNL     C6    6   0.474  -0.169   0.086
    1UNL     C7    7   0.412  -0.291   0.117
    1UNL     O1    8   0.481  -0.388   0.192
    1UNL     C8    9   0.275  -0.297   0.103
    1UNL     C9   10   0.204  -0.190   0.052
    1UNL     O2   11   0.062  -0.200   0.036
    1UNL    C10   12  -0.014  -0.089   0.072
    1UNL    C11   13  -0.162  -0.104   0.039
    1UNL    C12   14  -0.255  -0.089   0.147
    1UNL    C13   15  -0.393  -0.106   0.126
    1UNL    C14   16  -0.438  -0.150  -0.001
    1UNL     O3   17  -0.569  -0.164  -0.006
    1UNL    C15   18  -0.344  -0.165  -0.109
    1UNL    C16   19  -0.202  -0.150  -0.088
    1UNL     O4   20  -0.115  -0.175  -0.187
    1UNL    C17   21   0.046   0.049   0.039
    1UNL    C18   22  -0.044   0.157  -0.011
    1UNL    C19   23  -0.038   0.280   0.050
    1UNL    C20   24  -0.123   0.379   0.003
    1UNL     O5   25  -0.133   0.503   0.067
    1UNL    C21   26  -0.215   0.351  -0.098
    1UNL    C22   27  -0.214   0.231  -0.170
    1UNL     O6   28  -0.294   0.224  -0.278
    1UNL    C23   29  -0.118   0.138  -0.126
    1UNL     H1   30   0.229  -0.058  -0.240
    1UNL     H2   31   0.076  -0.114  -0.174
    1UNL     H3   32   0.101   0.055  -0.251
    1UNL     H4   33   0.181   0.244  -0.097
    1UNL     H5   34   0.287   0.201   0.028
    1UNL     H6   35   0.339   0.175  -0.126
    1UNL     H7   36   0.462   0.030   0.026
    1UNL     H8   37   0.588  -0.167   0.102
    1UNL     H9   38   0.568  -0.358   0.211
    1UNL    H10   39   0.209  -0.381   0.129
    1UNL    H11   40  -0.003  -0.099   0.187
    1UNL    H12   41  -0.237  -0.034   0.242
    1UNL    H13   42  -0.459  -0.089   0.211
    1UNL    H14   43  -0.595  -0.167  -0.105
    1UNL    H15   44  -0.381  -0.207  -0.202
    1UNL    H16   45  -0.167  -0.202  -0.267
    1UNL    H17   46   0.086   0.093   0.128
    1UNL    H18   47   0.020   0.311   0.135
    1UNL    H19   48  -0.175   0.572   0.005
    1UNL    H20   49  -0.271   0.445  -0.137
    1UNL    H21   50  -0.262   0.168  -0.345
    1UNL    H22   51  -0.108   0.038  -0.169
   0.00000   0.00000   0.00000   0.00000   0.00000   0.00000   0.00000   0.00000   0.00000
Generated with MDTraj, t= 3.0
 51
    1UNL     C1    1   0.146  -0.001  -0.205
    1UNL     C2    2   0.181   0.036  -0.058
    1UNL     C3    3   0.247   0.174  -0.064
    1UNL     C4    4   0.267  -0.072   0.008
    1UNL     C5    5   0.402  -0.062   0.038
    1UNL     C6    6   0.469  -0.166   0.100
    1UNL     C7    7   0.403  -0.287   0.125
    1UNL     O1    8   0.476  -0.387   0.188
    1UNL     C8    9   0.271  -0.301   0.095
    1UNL     C9   10   0.195  -0.189   0.045
    1UNL     O2   11   0.056  -0.201   0.032
    1UNL    C10   12  -0.012  -0.089   0.072
    1UNL    C11   13  -0.156  -0.108   0.046
    1UNL    C12   14  -0.248  -0.062   0.132
    1UNL    C13   15  -0.383  -0.094   0.116
    1UNL    C14   16  -0.432  -0.150  -0.003
    1UNL     O3   17  -0.574  -0.177  -0.007
    1UNL    C15   18  -0.338  -0.186  -0.093
    1UNL    C16   19  -0.201  -0.163  -0.075
    1UNL     O4   20  -0.117  -0.183  -0.184
    1UNL    C17   21   0.052   0.049   0.033
    1UNL    C18   22  -0.046   0.154  -0.014
    1UNL    C19   23  -0.043   0.277   0.054
    1UNL    C20   24  -0.126   0.382   0.007
    1UNL     O5   25  -0.130   0.499   0.075
    1UNL    C21   26  -0.197   0.367  -0.110
    1UNL    C22   27  -0.205   0.240  -0.166
    1UNL     O6   28  -0.291   0.222  -0.276
    1UNL    C23   29  -0.133   0.131  -0.116
    1UNL     H1   30   0.225  -0.070  -0.241
    1UNL     H2   31   0.059  -0.063  -0.209
    1UNL     H3   32   0.136   0.082  -0.278
    1UNL     H4   33   0.182   0.249  -0.099
    1UNL     H5   34   0.281   0.203   0.029
    1UNL     H6   35   0.337   0.167  -0.115
    1UNL     H7   36   0.457   0.036   0.023
    1UNL     H8   37   0.570  -0.166   0.094
    1UNL     H9   38   0.561  -0.348   0.210
    1UNL    H10   39   0.225  -0.387   0.130
    1UNL    H11   40   0.001  -0.099   0.186
    1UNL    H12   41  -0.206  -0.015   0.215
    1UNL    H13   42  -0.456  -0.042   0.173
    1UNL    H14   43  -0.616  -0.228  -0.082
    1UNL    H15   44  -0.364  -0.227  -0.186
    1UNL    H16   45  -0.168  -0.184  -0.270
    1UNL    H17   46   0.095   0.089   0.120
    1UNL    H18   47   0.029   0.303   0.129
    1UNL    H19   48  -0.161   0.572   0.015
    1UNL    H20   49  -0.261   0.439  -0.149
    1UNL    H21   50  -0.285   0.136  -0.323
    1UNL    H22   51  -0.137   0.029  -0.163
   0.00000   0.00000   0.00000   0.00000   0.00000   0.00000   0.00000   0.00000   0.00000
Generated with MDTraj, t= 4.0
 51
    1UNL     C1    1   0.160  -0.013  -0.199
    1UNL     C2    2   0.182   0.039  -0.056
    1UNL     C3    3   0.262   0.175  -0.063
    1UNL     C4    4   0.269  -0.074   0.017
    1UNL     C5    5   0.401  -0.063   0.037
    1UNL     C6    6   0.468  -0.173   0.089
    1UNL     C7    7   0.411  -0.295   0.129
    1UNL     O1    8   0.489  -0.400   0.180
    1UNL     C8    9   0.271  -0.300   0.108
    1UNL     C9   10   0.202  -0.192   0.052
    1UNL     O2   11   0.067  -0.192   0.013
    1UNL    C10   12  -0.016  -0.086   0.066
    1UNL    C11   13  -0.163  -0.103   0.038
    1UNL    C12   14  -0.256  -0.068   0.136
    1UNL    C13   15  -0.389  -0.087   0.113
    1UNL    C14   16  -0.437  -0.150   0.002
    1UNL     O3   17  -0.574  -0.179  -0.015
    1UNL    C15   18  -0.342  -0.179  -0.096
    1UNL    C16   19  -0.206  -0.164  -0.077
    1UNL     O4   20  -0.121  -0.213  -0.170
    1UNL    C17   21   0.054   0.049   0.030
    1UNL    C18   22  -0.047   0.162  -0.013
    1UNL    C19   23  -0.051   0.287   0.055
    1UNL    C20   24  -0.135   0.392   0.011
    1UNL     O5   25  -0.129   0.515   0.078
    1UNL    C21   26  -0.207   0.369  -0.106
    1UNL    C22   27  -0.219   0.244  -0.167
    1UNL     O6   28  -0.292   0.225  -0.283
    1UNL    C23   29  -0.138   0.139  -0.115
    1UNL     H1   30   0.255  -0.049  -0.246
    1UNL     H2   31   0.093  -0.091  -0.210
    1UNL     H3   32   0.120   0.071  -0.263
    1UNL     H4   33   0.197   0.242  -0.112
    1UNL     H5   34   0.288   0.219   0.026
    1UNL     H6   35   0.346   0.157  -0.118
    1UNL     H7   36   0.450   0.018  -0.006
    1UNL     H8   37   0.581  -0.165   0.099
    1UNL     H9   38   0.586  -0.383   0.195
    1UNL    H10   39   0.208  -0.391   0.131
    1UNL    H11   40  -0.018  -0.106   0.177
    1UNL    H12   41  -0.235   0.008   0.217
    1UNL    H13   42  -0.471  -0.070   0.185
    1UNL    H14   43  -0.569  -0.243  -0.087
    1UNL    H15   44  -0.363  -0.244  -0.183
    1UNL    H16   45  -0.033  -0.194  -0.133
    1UNL    H17   46   0.086   0.076   0.125
    1UNL    H18   47   0.014   0.298   0.141
    1UNL    H19   48  -0.143   0.591   0.020
    1UNL    H20   49  -0.284   0.435  -0.135
    1UNL    H21   50  -0.256   0.139  -0.326
    1UNL    H22   51  -0.136   0.047  -0.158
   0.00000   0.00000   0.00000   0.00000   0.00000   0.00000   0.00000   0.00000   0.00000
Generated with MDTraj, t= 5.0
 51
    1UNL     C1    1   0.153   0.019  -0.185
    1UNL     C2    2   0.181   0.039  -0.041
    1UNL     C3    3   0.253   0.181  -0.034
    1UNL     C4    4   0.264  -0.074   0.015
    1UNL     C5    5   0.401  -0.065   0.032
    1UNL     C6    6   0.476  -0.172   0.080
    1UNL     C7    7   0.411  -0.293   0.114
    1UNL     O1    8   0.486  -0.397   0.170
    1UNL     C8    9   0.268  -0.303   0.097
    1UNL     C9   10   0.196  -0.192   0.046
    1UNL     O2   11   0.060  -0.198   0.023
    1UNL    C10   12  -0.023  -0.080   0.074
    1UNL    C11   13  -0.169  -0.097   0.040
    1UNL    C12   14  -0.255  -0.055   0.137
    1UNL    C13   15  -0.388  -0.073   0.113
    1UNL    C14   16  -0.430  -0.135  -0.008
    1UNL     O3   17  -0.563  -0.153  -0.030
    1UNL    C15   18  -0.339  -0.202  -0.085
    1UNL    C16   19  -0.207  -0.170  -0.071
    1UNL     O4   20  -0.115  -0.232  -0.153
    1UNL    C17   21   0.051   0.054   0.041
    1UNL    C18   22  -0.043   0.156  -0.020
    1UNL    C19   23  -0.042   0.281   0.038
    1UNL    C20   24  -0.125   0.381  -0.005
    1UNL     O5   25  -0.128   0.494   0.086
    1UNL    C21   26  -0.217   0.358  -0.108
    1UNL    C22   27  -0.214   0.238  -0.178
    1UNL     O6   28  -0.300   0.210  -0.279
    1UNL    C23   29  -0.125   0.143  -0.129
    1UNL     H1   30   0.244   0.036  -0.249
    1UNL     H2   31   0.123  -0.087  -0.200
    1UNL     H3   32   0.069   0.082  -0.214
    1UNL     H4   33   0.190   0.258  -0.061
    1UNL     H5   34   0.290   0.202   0.061
    1UNL     H6   35   0.333   0.173  -0.098
    1UNL     H7   36   0.444   0.026  -0.011
    1UNL     H8   37   0.581  -0.159   0.095
    1UNL     H9   38   0.582  -0.368   0.185
    1UNL    H10   39   0.239  -0.399   0.118
    1UNL    H11   40  -0.021  -0.102   0.178
    1UNL    H12   41  -0.212  -0.001   0.215
    1UNL    H13   42  -0.456  -0.023   0.177
    1UNL    H14   43  -0.593  -0.209  -0.102
    1UNL    H15   44  -0.384  -0.257  -0.161
    1UNL    H16   45  -0.033  -0.252  -0.106
    1UNL    H17   46   0.070   0.094   0.135
    1UNL    H18   47   0.011   0.301   0.129
    1UNL    H19   48  -0.152   0.576   0.042
    1UNL    H20   49  -0.291   0.444  -0.133
    1UNL    H21   50  -0.267   0.126  -0.333
    1UNL    H22   51  -0.138   0.041  -0.172
   0.00000   0.00000   0.00000   0.00000   0.00000   0.00000   0.00000   0.00000   0.00000
Generated with MDTraj, t= 6.0
 51
    1UNL     C1    1   0.152   0.025  -0.179
    1UNL     C2    2   0.181   0.047  -0.031
    1UNL     C3    3   0.251   0.184  -0.017
    1UNL     C4    4   0.273  -0.071   0.020
    1UNL     C5    5   0.413  -0.065   0.031
    1UNL     C6    6   0.482  -0.173   0.078
    1UNL     C7    7   0.420  -0.296   0.107
    1UNL     O1    8   0.488  -0.405   0.149
    1UNL     C8    9   0.282  -0.298   0.085
    1UNL     C9   10   0.206  -0.190   0.050
    1UNL     O2   11   0.068  -0.214   0.031
    1UNL    C10   12  -0.007  -0.089   0.081
    1UNL    C11   13  -0.151  -0.101   0.037
    1UNL    C12   14  -0.252  -0.044   0.122
    1UNL    C13   15  -0.388  -0.044   0.097
    1UNL    C14   16  -0.439  -0.114  -0.011
    1UNL     O3   17  -0.578  -0.115  -0.029
    1UNL    C15   18  -0.339  -0.181  -0.091
    1UNL    C16   19  -0.201  -0.185  -0.072
    1UNL     O4   20  -0.121  -0.254  -0.159
    1UNL    C17   21   0.050   0.052   0.051
    1UNL    C18   22  -0.050   0.154  -0.001
    1UNL    C19   23  -0.064   0.278   0.057
    1UNL    C20   24  -0.151   0.375   0.004
    1UNL     O5   25  -0.144   0.506   0.056
    1UNL    C21   26  -0.229   0.343  -0.108
    1UNL    C22   27  -0.209   0.221  -0.171
    1UNL     O6   28  -0.299   0.188  -0.275
    1UNL    C23   29  -0.120   0.131  -0.118
    1UNL     H1   30   0.245   0.014  -0.238
    1UNL     H2   31   0.088  -0.068  -0.194
    1UNL     H3   32   0.094   0.109  -0.210
    1UNL     H4   33   0.178   0.254  -0.026
    1UNL     H5   34   0.300   0.199   0.073
    1UNL     H6   35   0.320   0.194  -0.093
    1UNL     H7   36   0.460   0.030   0.005
    1UNL     H8   37   0.586  -0.171   0.074
    1UNL     H9   38   0.589  -0.388   0.156
    1UNL    H10   39   0.217  -0.387   0.112
    1UNL    H11   40  -0.010  -0.095   0.185
    1UNL    H12   41  -0.218   0.024   0.204
    1UNL    H13   42  -0.448   0.028   0.154
    1UNL    H14   43  -0.591  -0.185  -0.098
    1UNL    H15   44  -0.372  -0.249  -0.172
    1UNL    H16   45  -0.027  -0.253  -0.126
    1UNL    H17   46   0.078   0.090   0.143
    1UNL    H18   47  -0.007   0.299   0.146
    1UNL    H19   48  -0.144   0.567  -0.021
    1UNL    H20   49  -0.282   0.414  -0.157
    1UNL    H21   50  -0.265   0.101  -0.321
    1UNL    H22   51  -0.123   0.032  -0.166
   0.00000   0.00000   0.00000   0.00000   0.00000   0.00000   0.00000   0.00000   0.00000
Generated with MDTraj, t= 7.0
 51
    1UNL     C1    1   0.171   0.015  -0.180
    1UNL     C2    2   0.191   0.049  -0.028
    1UNL     C3    3   0.257   0.192  -0.013
    1UNL     C4    4   0.274  -0.058   0.026
    1UNL     C5    5   0.410  -0.053   0.055
    1UNL     C6    6   0.481  -0.166   0.091
    1UNL     C7    7   0.422  -0.297   0.092
    1UNL     O1    8   0.490  -0.416   0.120
    1UNL     C8    9   0.288  -0.299   0.070
    1UNL     C9   10   0.214  -0.184   0.039
    1UNL     O2   11   0.076  -0.202   0.031
    1UNL    C10   12  -0.009  -0.096   0.090
    1UNL    C11   13  -0.163  -0.121   0.067
    1UNL    C12   14  -0.248  -0.040   0.135
    1UNL    C13   15  -0.382  -0.031   0.102
    1UNL    C14   16  -0.431  -0.096  -0.017
    1UNL     O3   17  -0.567  -0.084  -0.055
    1UNL    C15   18  -0.351  -0.168  -0.096
    1UNL    C16   19  -0.220  -0.181  -0.043
    1UNL     O4   20  -0.133  -0.240  -0.140
    1UNL    C17   21   0.049   0.047   0.055
    1UNL    C18   22  -0.045   0.146  -0.010
    1UNL    C19   23  -0.050   0.274   0.042
    1UNL    C20   24  -0.150   0.363  -0.005
    1UNL     O5   25  -0.177   0.486   0.057
    1UNL    C21   26  -0.225   0.329  -0.115
    1UNL    C22   27  -0.219   0.203  -0.168
    1UNL     O6   28  -0.303   0.176  -0.278
    1UNL    C23   29  -0.124   0.108  -0.120
    1UNL     H1   30   0.266  -0.033  -0.211
    1UNL     H2   31   0.099  -0.069  -0.191
    1UNL     H3   32   0.136   0.094  -0.247
    1UNL     H4   33   0.188   0.266  -0.035
    1UNL     H5   34   0.295   0.202   0.083
    1UNL     H6   35   0.348   0.213  -0.060
    1UNL     H7   36   0.457   0.040   0.056
    1UNL     H8   37   0.591  -0.172   0.123
    1UNL     H9   38   0.590  -0.402   0.121
    1UNL    H10   39   0.238  -0.392   0.084
    1UNL    H11   40   0.014  -0.102   0.191
    1UNL    H12   41  -0.210   0.023   0.209
    1UNL    H13   42  -0.448   0.049   0.129
    1UNL    H14   43  -0.594  -0.156  -0.121
    1UNL    H15   44  -0.388  -0.200  -0.189
    1UNL    H16   45  -0.042  -0.246  -0.099
    1UNL    H17   46   0.080   0.093   0.142
    1UNL    H18   47   0.003   0.295   0.133
    1UNL    H19   48  -0.211   0.553  -0.010
    1UNL    H20   49  -0.286   0.408  -0.158
    1UNL    H21   50  -0.274   0.085  -0.303
    1UNL    H22   51  -0.105   0.021  -0.170
   0.00000   0.00000   0.00000   0.00000   0.00000   0.00000   0.00000   0.00000   0.00000
Generated with MDTraj, t= 8.0
 51
    1UNL     C1    1   0.182   0.017  -0.180
    1UNL     C2    2   0.193   0.049  -0.025
    1UNL     C3    3   0.258   0.184   0.002
    1UNL     C4    4   0.271  -0.072   0.044
    1UNL     C5    5   0.412  -0.063   0.065
    1UNL     C6    6   0.483  -0.171   0.089
    1UNL     C7    7   0.416  -0.292   0.098
    1UNL     O1    8   0.489  -0.409   0.109
    1UNL     C8    9   0.281  -0.307   0.074
    1UNL     C9   10   0.207  -0.199   0.046
    1UNL     O2   11   0.069  -0.204   0.020
    1UNL    C10   12  -0.003  -0.101   0.074
    1UNL    C11   13  -0.148  -0.113   0.062
    1UNL    C12   14  -0.238  -0.046   0.147
    1UNL    C13   15  -0.368  -0.015   0.110
    1UNL    C14   16  -0.422  -0.065  -0.006
    1UNL     O3   17  -0.556  -0.062  -0.033
    1UNL    C15   18  -0.337  -0.144  -0.083
    1UNL    C16   19  -0.200  -0.171  -0.059
    1UNL     O4   20  -0.129  -0.244  -0.155
    1UNL    C17   21   0.053   0.041   0.053
    1UNL    C18   22  -0.049   0.143  -0.009
    1UNL    C19   23  -0.077   0.271   0.045
    1UNL    C20   24  -0.171   0.363  -0.007
    1UNL     O5   25  -0.204   0.486   0.050
    1UNL    C21   26  -0.242   0.319  -0.118
    1UNL    C22   27  -0.223   0.195  -0.176
    1UNL     O6   28  -0.293   0.164  -0.294
    1UNL    C23   29  -0.125   0.109  -0.124
    1UNL     H1   30   0.276  -0.033  -0.210
    1UNL     H2   31   0.101  -0.049  -0.205
    1UNL     H3   32   0.163   0.108  -0.246
    1UNL     H4   33   0.188   0.260  -0.027
    1UNL     H5   34   0.291   0.196   0.099
    1UNL     H6   35   0.353   0.201  -0.039
    1UNL     H7   36   0.470   0.029   0.034
    1UNL     H8   37   0.580  -0.162   0.117
    1UNL     H9   38   0.581  -0.381   0.107
    1UNL    H10   39   0.234  -0.401   0.067
    1UNL    H11   40   0.008  -0.117   0.179
    1UNL    H12   41  -0.202   0.004   0.240
    1UNL    H13   42  -0.429   0.023   0.191
    1UNL    H14   43  -0.575  -0.135  -0.102
    1UNL    H15   44  -0.371  -0.201  -0.169
    1UNL    H16   45  -0.038  -0.266  -0.122
    1UNL    H17   46   0.084   0.078   0.144
    1UNL    H18   47  -0.009   0.311   0.119
    1UNL    H19   48  -0.245   0.546  -0.021
    1UNL    H20   49  -0.329   0.388  -0.150
    1UNL    H21   50  -0.259   0.086  -0.336
    1UNL    H22   51  -0.110   0.012  -0.181
   0.00000   0.00000   0.00000   0.00000   0.00000   0.00000   0.00000   0.00000   0.00000
Generated with MDTraj, t= 9.0
 51
    1UNL     C1    1   0.201   0.043  -0.175
    1UNL     C2    2   0.197   0.051  -0.019
    1UNL     C3    3   0.267   0.181   0.014
    1UNL     C4    4   0.274  -0.068   0.024
    1UNL     C5    5   0.411  -0.061   0.049
    1UNL     C6    6   0.481  -0.176   0.089
    1UNL     C7    7   0.421  -0.298   0.093
    1UNL     O1    8   0.484  -0.413   0.134
    1UNL     C8    9   0.282  -0.303   0.061
    1UNL     C9   10   0.211  -0.191   0.026
    1UNL     O2   11   0.066  -0.193   0.010
    1UNL    C10   12  -0.006  -0.087   0.072
    1UNL    C11   13  -0.162  -0.098   0.057
    1UNL    C12   14  -0.238  -0.052   0.161
    1UNL    C13   15  -0.373  -0.025   0.133
    1UNL    C14   16  -0.430  -0.073   0.014
    1UNL     O3   17  -0.561  -0.054  -0.017
    1UNL    C15   18  -0.357  -0.144  -0.080
    1UNL    C16   19  -0.215  -0.146  -0.064
    1UNL     O4   20  -0.140  -0.209  -0.159
    1UNL    C17   21   0.054   0.053   0.054
    1UNL    C18   22  -0.046   0.142  -0.019
    1UNL    C19   23  -0.090   0.253   0.048
    1UNL    C20   24  -0.181   0.338  -0.006
    1UNL     O5   25  -0.209   0.451   0.061
    1UNL    C21   26  -0.237   0.305  -0.131
    1UNL    C22   27  -0.206   0.185  -0.193
    1UNL     O6   28  -0.267   0.139  -0.305
    1UNL    C23   29  -0.109   0.107  -0.138
    1UNL     H1   30   0.304   0.018  -0.209
    1UNL     H2   31   0.136  -0.037  -0.205
    1UNL     H3   32   0.156   0.132  -0.231
    1UNL     H4   33   0.218   0.269  -0.022
    1UNL     H5   34   0.300   0.188   0.114
    1UNL     H6   35   0.363   0.170  -0.025
    1UNL     H7   36   0.452   0.032   0.064
    1UNL     H8   37   0.591  -0.183   0.112
    1UNL     H9   38   0.572  -0.393   0.162
    1UNL    H10   39   0.228  -0.399   0.084
    1UNL    H11   40   0.011  -0.119   0.176
    1UNL    H12   41  -0.192  -0.010   0.247
    1UNL    H13   42  -0.438   0.020   0.208
    1UNL    H14   43  -0.590  -0.077  -0.111
    1UNL    H15   44  -0.408  -0.184  -0.169
    1UNL    H16   45  -0.051  -0.225  -0.125
    1UNL    H17   46   0.063   0.097   0.146
    1UNL    H18   47  -0.034   0.294   0.131
    1UNL    H19   48  -0.250   0.516  -0.002
    1UNL    H20   49  -0.311   0.363  -0.166
    1UNL    H21   50  -0.218   0.071  -0.345
    1UNL    H22   51  -0.087   0.013  -0.183
   0.00000   0.00000   0.00000   0.00000   0.00000   0.00000   0.00000   0.00000   0.00000
Generated with MDTraj, t= 10.0
 51
    1UNL     C1    1   0.185   0.061  -0.174
    1UNL     C2    2   0.197   0.059  -0.018
    1UNL     C3    3   0.277   0.183   0.036
    1UNL     C4    4   0.282  -0.069   0.034
    1UNL     C5    5   0.418  -0.078   0.055
    1UNL     C6    6   0.480  -0.191   0.094
    1UNL     C7    7   0.411  -0.316   0.103
    1UNL     O1    8   0.474  -0.435   0.143
    1UNL     C8    9   0.276  -0.310   0.062
    1UNL     C9   10   0.209  -0.191   0.035
    1UNL     O2   11   0.078  -0.196  -0.005
    1UNL    C10   12   0.011  -0.083   0.069
    1UNL    C11   13  -0.148  -0.097   0.053
    1UNL    C12   14  -0.222  -0.044   0.158
    1UNL    C13   15  -0.360  -0.048   0.151
    1UNL    C14   16  -0.423  -0.086   0.034
    1UNL     O3   17  -0.564  -0.064   0.031
    1UNL    C15   18  -0.351  -0.129  -0.076
    1UNL    C16   19  -0.212  -0.140  -0.068
    1UNL     O4   20  -0.146  -0.194  -0.177
    1UNL    C17   21   0.057   0.067   0.047
    1UNL    C18   22  -0.044   0.151  -0.029
    1UNL    C19   23  -0.092   0.264   0.035
    1UNL    C20   24  -0.199   0.340  -0.021
    1UNL     O5   25  -0.241   0.445   0.064
    1UNL    C21   26  -0.247   0.304  -0.147
    1UNL    C22   27  -0.203   0.189  -0.214
    1UNL     O6   28  -0.257   0.153  -0.341
    1UNL    C23   29  -0.106   0.114  -0.146
    1UNL     H1   30   0.279   0.098  -0.221
    1UNL     H2   31   0.149  -0.034  -0.217
    1UNL     H3   32   0.103   0.129  -0.199
    1UNL     H4   33   0.233   0.269  -0.005
    1UNL     H5   34   0.272   0.179   0.145
    1UNL     H6   35   0.382   0.178   0.026
    1UNL     H7   36   0.480   0.014   0.048
    1UNL     H8   37   0.585  -0.180   0.106
    1UNL     H9   38   0.558  -0.409   0.178
    1UNL    H10   39   0.228  -0.400   0.068
    1UNL    H11   40   0.028  -0.121   0.175
    1UNL    H12   41  -0.175  -0.006   0.250
    1UNL    H13   42  -0.424   0.004   0.220
    1UNL    H14   43  -0.595  -0.072  -0.062
    1UNL    H15   44  -0.393  -0.163  -0.166
    1UNL    H16   45  -0.058  -0.213  -0.142
    1UNL    H17   46   0.064   0.108   0.140
    1UNL    H18   47  -0.069   0.284   0.138
    1UNL    H19   48  -0.294   0.513   0.020
    1UNL    H20   49  -0.332   0.359  -0.192
    1UNL    H21   50  -0.201   0.086  -0.375
    1UNL    H22   51  -0.078   0.021  -0.184
   0.00000   0.00000   0.00000   0.00000   0.00000   0.00000   0.00000   0.00000   0.00000
Generated with MDTraj, t= 11.0
 51
    1UNL     C1    1   0.212   0.065  -0.172
    1UNL     C2    2   0.213   0.062  -0.017
    1UNL     C3    3   0.276   0.190   0.040
    1UNL     C4    4   0.282  -0.068   0.028
    1UNL     C5    5   0.409  -0.073   0.081
    1UNL     C6    6   0.469  -0.195   0.113
    1UNL     C7    7   0.399  -0.311   0.092
    1UNL     O1    8   0.457  -0.431   0.124
    1UNL     C8    9   0.267  -0.309   0.049
    1UNL     C9   10   0.207  -0.185   0.014
    1UNL     O2   11   0.072  -0.179  -0.015
    1UNL    C10   12   0.004  -0.075   0.073
    1UNL    C11   13  -0.150  -0.090   0.056
    1UNL    C12   14  -0.222  -0.040   0.164
    1UNL    C13   15  -0.361  -0.062   0.170
    1UNL    C14   16  -0.432  -0.096   0.054
    1UNL     O3   17  -0.575  -0.092   0.051
    1UNL    C15   18  -0.358  -0.127  -0.056
    1UNL    C16   19  -0.222  -0.144  -0.057
    1UNL     O4   20  -0.149  -0.183  -0.169
    1UNL    C17   21   0.061   0.068   0.041
    1UNL    C18   22  -0.035   0.143  -0.043
    1UNL    C19   23  -0.088   0.249   0.027
    1UNL    C20   24  -0.194   0.332  -0.025
    1UNL     O5   25  -0.250   0.437   0.053
    1UNL    C21   26  -0.249   0.302  -0.148
    1UNL    C22   27  -0.184   0.198  -0.223
    1UNL     O6   28  -0.231   0.158  -0.350
    1UNL    C23   29  -0.082   0.119  -0.167
    1UNL     H1   30   0.316   0.087  -0.207
    1UNL     H2   31   0.172  -0.033  -0.211
    1UNL     H3   32   0.148   0.138  -0.217
    1UNL     H4   33   0.217   0.266   0.001
    1UNL     H5   34   0.277   0.179   0.148
    1UNL     H6   35   0.381   0.199   0.016
    1UNL     H7   36   0.456   0.023   0.073
    1UNL     H8   37   0.553  -0.208   0.182
    1UNL     H9   38   0.538  -0.438   0.179
    1UNL    H10   39   0.209  -0.400   0.032
    1UNL    H11   40   0.022  -0.110   0.182
    1UNL    H12   41  -0.166   0.004   0.246
    1UNL    H13   42  -0.415  -0.045   0.263
    1UNL    H14   43  -0.610  -0.098  -0.038
    1UNL    H15   44  -0.409  -0.169  -0.145
    1UNL    H16   45  -0.054  -0.188  -0.142
    1UNL    H17   46   0.062   0.117   0.131
    1UNL    H18   47  -0.071   0.252   0.134
    1UNL    H19   48  -0.310   0.488  -0.002
    1UNL    H20   49  -0.331   0.359  -0.201
    1UNL    H21   50  -0.185   0.081  -0.385
    1UNL    H22   51  -0.036   0.033  -0.224
   0.00000   0.00000   0.00000   0.00000   0.00000   0.00000   0.00000   0.00000   0.00000
Generated with MDTraj, t= 12.0
 51
    1UNL     C1    1   0.225   0.057  -0.163
    1UNL     C2    2   0.203   0.063  -0.004
    1UNL     C3    3   0.266   0.185   0.062
    1UNL     C4    4   0.280  -0.066   0.040
    1UNL     C5    5   0.410  -0.075   0.087
    1UNL     C6    6   0.462  -0.198   0.114
    1UNL     C7    7   0.388  -0.315   0.088
    1UNL     O1    8   0.453  -0.433   0.103
    1UNL     C8    9   0.266  -0.302   0.034
    1UNL     C9   10   0.205  -0.178   0.010
    1UNL     O2   11   0.076  -0.181  -0.033
    1UNL    C10   12   0.000  -0.086   0.051
    1UNL    C11   13  -0.154  -0.088   0.057
    1UNL    C12   14  -0.220  -0.045   0.175
    1UNL    C13   15  -0.356  -0.050   0.175
    1UNL    C14   16  -0.425  -0.104   0.064
    1UNL     O3   17  -0.559  -0.110   0.077
    1UNL    C15   18  -0.359  -0.153  -0.048
    1UNL    C16   19  -0.222  -0.132  -0.053
    1UNL     O4   20  -0.159  -0.181  -0.168
    1UNL    C17   21   0.053   0.060   0.048
    1UNL    C18   22  -0.044   0.153  -0.027
    1UNL    C19   23  -0.101   0.266   0.033
    1UNL    C20   24  -0.197   0.341  -0.034
    1UNL     O5   25  -0.265   0.451   0.019
    1UNL    C21   26  -0.226   0.311  -0.165
    1UNL    C22   27  -0.170   0.198  -0.231
    1UNL     O6   28  -0.218   0.161  -0.352
    1UNL    C23   29  -0.073   0.123  -0.156
    1UNL     H1   30   0.332   0.043  -0.189
    1UNL     H2   31   0.161  -0.023  -0.211
    1UNL     H3   32   0.192   0.143  -0.220
    1UNL     H4   33   0.193   0.263   0.048
    1UNL     H5   34   0.297   0.164   0.162
    1UNL     H6   35   0.358   0.216   0.013
    1UNL     H7   36   0.477   0.007   0.099
    1UNL     H8   37   0.561  -0.195   0.160
    1UNL     H9   38   0.538  -0.412   0.154
    1UNL    H10   39   0.208  -0.394   0.020
    1UNL    H11   40   0.026  -0.124   0.155
    1UNL    H12   41  -0.176   0.010   0.256
    1UNL    H13   42  -0.406  -0.015   0.263
    1UNL    H14   43  -0.593  -0.136  -0.008
    1UNL    H15   44  -0.417  -0.188  -0.126
    1UNL    H16   45  -0.064  -0.202  -0.149
    1UNL    H17   46   0.063   0.099   0.144
    1UNL    H18   47  -0.075   0.294   0.133
    1UNL    H19   48  -0.320   0.484  -0.053
    1UNL    H20   49  -0.289   0.368  -0.220
    1UNL    H21   50  -0.195   0.065  -0.371
    1UNL    H22   51  -0.042   0.029  -0.192
   0.00000   0.00000   0.00000   0.00000   0.00000   0.00000   0.00000   0.00000   0.00000
Generated with MDTraj, t= 13.0
 51
    1UNL     C1    1   0.228   0.102  -0.142
    1UNL     C2    2   0.206   0.074   0.006
    1UNL     C3    3   0.262   0.186   0.097
    1UNL     C4    4   0.270  -0.062   0.035
    1UNL     C5    5   0.400  -0.068   0.073
    1UNL     C6    6   0.463  -0.188   0.118
    1UNL     C7    7   0.396  -0.304   0.078
    1UNL     O1    8   0.440  -0.436   0.075
    1UNL     C8    9   0.268  -0.301   0.027
    1UNL     C9   10   0.203  -0.184   0.008
    1UNL     O2   11   0.063  -0.166  -0.024
    1UNL    C10   12   0.003  -0.082   0.066
    1UNL    C11   13  -0.149  -0.094   0.065
    1UNL    C12   14  -0.225  -0.062   0.176
    1UNL    C13   15  -0.362  -0.057   0.181
    1UNL    C14   16  -0.440  -0.106   0.074
    1UNL     O3   17  -0.580  -0.122   0.073
    1UNL    C15   18  -0.368  -0.152  -0.037
    1UNL    C16   19  -0.226  -0.151  -0.043
    1UNL     O4   20  -0.155  -0.208  -0.152
    1UNL    C17   21   0.055   0.065   0.056
    1UNL    C18   22  -0.037   0.146  -0.035
    1UNL    C19   23  -0.085   0.266   0.015
    1UNL    C20   24  -0.177   0.344  -0.049
    1UNL     O5   25  -0.226   0.460   0.001
    1UNL    C21   26  -0.215   0.302  -0.174
    1UNL    C22   27  -0.178   0.185  -0.233
    1UNL     O6   28  -0.209   0.173  -0.369
    1UNL    C23   29  -0.093   0.103  -0.157
    1UNL     H1   30   0.333   0.076  -0.161
    1UNL     H2   31   0.162   0.041  -0.205
    1UNL     H3   32   0.217   0.207  -0.179
    1UNL     H4   33   0.207   0.284   0.104
    1UNL     H5   34   0.296   0.145   0.189
    1UNL     H6   35   0.358   0.211   0.055
    1UNL     H7   36   0.451   0.026   0.106
    1UNL     H8   37   0.567  -0.190   0.132
    1UNL     H9   38   0.537  -0.445   0.102
    1UNL    H10   39   0.211  -0.387   0.010
    1UNL    H11   40   0.035  -0.120   0.163
    1UNL    H12   41  -0.161  -0.013   0.250
    1UNL    H13   42  -0.411  -0.007   0.265
    1UNL    H14   43  -0.605  -0.161  -0.011
    1UNL    H15   44  -0.422  -0.189  -0.126
    1UNL    H16   45  -0.064  -0.234  -0.128
    1UNL    H17   46   0.062   0.110   0.152
    1UNL    H18   47  -0.039   0.308   0.104
    1UNL    H19   48  -0.309   0.493  -0.042
    1UNL    H20   49  -0.281   0.368  -0.236
    1UNL    H21   50  -0.195   0.076  -0.399
    1UNL    H22   51  -0.064   0.013  -0.207
   0.00000   0.00000   0.00000   0.00000   0.00000   0.00000   0.00000   0.00000   0.00000
Generated with MDTraj, t= 14.0
 51
    1UNL     C1    1   0.227   0.124  -0.112
    1UNL     C2    2   0.193   0.076   0.034
    1UNL     C3    3   0.250   0.179   0.137
    1UNL     C4    4   0.268  -0.054   0.044
    1UNL     C5    5   0.405  -0.068   0.062
    1UNL     C6    6   0.471  -0.192   0.074
    1UNL     C7    7   0.401  -0.306   0.050
    1UNL     O1    8   0.459  -0.437   0.059
    1UNL     C8    9   0.268  -0.293   0.012
    1UNL     C9   10   0.203  -0.176   0.015
    1UNL     O2   11   0.066  -0.177  -0.016
    1UNL    C10   12  -0.011  -0.091   0.067
    1UNL    C11   13  -0.163  -0.101   0.068
    1UNL    C12   14  -0.235  -0.047   0.175
    1UNL    C13   15  -0.369  -0.059   0.177
    1UNL    C14   16  -0.438  -0.112   0.065
    1UNL     O3   17  -0.572  -0.113   0.079
    1UNL    C15   18  -0.366  -0.176  -0.039
    1UNL    C16   19  -0.228  -0.169  -0.034
    1UNL     O4   20  -0.168  -0.217  -0.151
    1UNL    C17   21   0.038   0.056   0.070
    1UNL    C18   22  -0.054   0.147  -0.020
    1UNL    C19   23  -0.097   0.276   0.018
    1UNL    C20   24  -0.163   0.365  -0.069
    1UNL     O5   25  -0.197   0.494  -0.034
    1UNL    C21   26  -0.197   0.314  -0.197
    1UNL    C22   27  -0.164   0.184  -0.230
    1UNL     O6   28  -0.211   0.136  -0.352
    1UNL    C23   29  -0.090   0.101  -0.150
    1UNL     H1   30   0.335   0.118  -0.132
    1UNL     H2   31   0.168   0.072  -0.185
    1UNL     H3   32   0.196   0.232  -0.126
    1UNL     H4   33   0.228   0.286   0.111
    1UNL     H5   34   0.215   0.156   0.238
    1UNL     H6   35   0.357   0.175   0.154
    1UNL     H7   36   0.473   0.013   0.057
    1UNL     H8   37   0.579  -0.194   0.113
    1UNL     H9   38   0.555  -0.426   0.083
    1UNL    H10   39   0.209  -0.386  -0.008
    1UNL    H11   40   0.001  -0.133   0.164
    1UNL    H12   41  -0.183  -0.007   0.259
    1UNL    H13   42  -0.437  -0.005   0.239
    1UNL    H14   43  -0.616  -0.172   0.014
    1UNL    H15   44  -0.417  -0.229  -0.117
    1UNL    H16   45  -0.073  -0.210  -0.135
    1UNL    H17   46   0.030   0.084   0.172
    1UNL    H18   47  -0.070   0.314   0.113
    1UNL    H19   48  -0.272   0.532  -0.091
    1UNL    H20   49  -0.271   0.364  -0.256
    1UNL    H21   50  -0.227   0.034  -0.341
    1UNL    H22   51  -0.042   0.009  -0.188
   0.00000   0.00000   0.00000   0.00000   0.00000   0.00000   0.00000   0.00000   0.00000
Generated with MDTraj, t= 15.0
 51
    1UNL     C1    1   0.215   0.150  -0.071
    1UNL     C2    2   0.191   0.076   0.060
    1UNL     C3    3   0.247   0.170   0.166
    1UNL     C4    4   0.262  -0.053   0.046
    1UNL     C5    5   0.399  -0.065   0.075
    1UNL     C6    6   0.466  -0.185   0.065
    1UNL     C7    7   0.396  -0.296   0.019
    1UNL     O1    8   0.469  -0.411   0.010
    1UNL     C8    9   0.262  -0.287  -0.006
    1UNL     C9   10   0.193  -0.167   0.008
    1UNL     O2   11   0.052  -0.168  -0.004
    1UNL    C10   12  -0.015  -0.083   0.091
    1UNL    C11   13  -0.167  -0.100   0.074
    1UNL    C12   14  -0.246  -0.044   0.178
    1UNL    C13   15  -0.381  -0.055   0.173
    1UNL    C14   16  -0.451  -0.117   0.071
    1UNL     O3   17  -0.592  -0.121   0.063
    1UNL    C15   18  -0.369  -0.164  -0.034
    1UNL    C16   19  -0.230  -0.172  -0.030
    1UNL     O4   20  -0.162  -0.230  -0.135
    1UNL    C17   21   0.032   0.062   0.076
    1UNL    C18   22  -0.040   0.142  -0.023
    1UNL    C19   23  -0.065   0.273   0.005
    1UNL    C20   24  -0.139   0.355  -0.084
    1UNL     O5   25  -0.144   0.496  -0.054
    1UNL    C21   26  -0.194   0.304  -0.205
    1UNL    C22   27  -0.165   0.167  -0.236
    1UNL     O6   28  -0.215   0.096  -0.348
    1UNL    C23   29  -0.087   0.089  -0.148
    1UNL     H1   30   0.323   0.176  -0.075
    1UNL     H2   31   0.183   0.091  -0.157
    1UNL     H3   32   0.155   0.243  -0.073
    1UNL     H4   33   0.176   0.254   0.176
    1UNL     H5   34   0.257   0.121   0.267
    1UNL     H6   35   0.346   0.211   0.137
    1UNL     H7   36   0.457   0.028   0.087
    1UNL     H8   37   0.561  -0.199   0.097
    1UNL     H9   38   0.563  -0.386   0.010
    1UNL    H10   39   0.216  -0.371  -0.048
    1UNL    H11   40  -0.001  -0.112   0.190
    1UNL    H12   41  -0.195   0.028   0.244
    1UNL    H13   42  -0.434  -0.000   0.251
    1UNL    H14   43  -0.625  -0.205   0.017
    1UNL    H15   44  -0.417  -0.202  -0.120
    1UNL    H16   45  -0.065  -0.235  -0.119
    1UNL    H17   46   0.005   0.104   0.171
    1UNL    H18   47  -0.046   0.321   0.101
    1UNL    H19   48  -0.231   0.533  -0.090
    1UNL    H20   49  -0.253   0.368  -0.266
    1UNL    H21   50  -0.196  -0.004  -0.332
    1UNL    H22   51  -0.076  -0.015  -0.159
   0.00000   0.00000   0.00000   0.00000   0.00000   0.00000   0.00000   0.00000   0.00000
Generated with MDTraj, t= 16.0
 51
    1UNL     C1    1   0.217   0.162  -0.036
    1UNL     C2    2   0.186   0.084   0.092
    1UNL     C3    3   0.241   0.155   0.218
    1UNL     C4    4   0.257  -0.052   0.078
    1UNL     C5    5   0.394  -0.069   0.091
    1UNL     C6    6   0.460  -0.181   0.052
    1UNL     C7    7   0.399  -0.298  -0.005
    1UNL     O1    8   0.475  -0.403  -0.053
    1UNL     C8    9   0.262  -0.285  -0.019
    1UNL     C9   10   0.190  -0.169   0.028
    1UNL     O2   11   0.056  -0.159  -0.012
    1UNL    C10   12  -0.013  -0.083   0.095
    1UNL    C11   13  -0.169  -0.103   0.084
    1UNL    C12   14  -0.245  -0.047   0.186
    1UNL    C13   15  -0.383  -0.052   0.178
    1UNL    C14   16  -0.445  -0.112   0.066
    1UNL     O3   17  -0.587  -0.110   0.061
    1UNL    C15   18  -0.369  -0.181  -0.025
    1UNL    C16   19  -0.233  -0.171  -0.026
    1UNL     O4   20  -0.163  -0.238  -0.123
    1UNL    C17   21   0.025   0.069   0.092
    1UNL    C18   22  -0.051   0.146  -0.016
    1UNL    C19   23  -0.059   0.283  -0.022
    1UNL    C20   24  -0.125   0.361  -0.123
    1UNL     O5   25  -0.134   0.496  -0.092
    1UNL    C21   26  -0.186   0.294  -0.226
    1UNL    C22   27  -0.167   0.157  -0.236
    1UNL     O6   28  -0.218   0.083  -0.346
    1UNL    C23   29  -0.100   0.088  -0.131
    1UNL     H1   30   0.321   0.199  -0.035
    1UNL     H2   31   0.202   0.095  -0.124
    1UNL     H3   32   0.155   0.248  -0.054
    1UNL     H4   33   0.164   0.225   0.248
    1UNL     H5   34   0.243   0.081   0.307
    1UNL     H6   35   0.343   0.204   0.201
    1UNL     H7   36   0.445   0.018   0.123
    1UNL     H8   37   0.573  -0.181   0.033
    1UNL     H9   38   0.567  -0.387  -0.073
    1UNL    H10   39   0.204  -0.368  -0.057
    1UNL    H11   40   0.017  -0.128   0.186
    1UNL    H12   41  -0.195   0.013   0.257
    1UNL    H13   42  -0.446   0.004   0.244
    1UNL    H14   43  -0.617  -0.195   0.012
    1UNL    H15   44  -0.425  -0.212  -0.116
    1UNL    H16   45  -0.066  -0.227  -0.105
    1UNL    H17   46  -0.007   0.108   0.188
    1UNL    H18   47  -0.025   0.334   0.066
    1UNL    H19   48  -0.222   0.529  -0.118
    1UNL    H20   49  -0.221   0.348  -0.318
    1UNL    H21   50  -0.196  -0.016  -0.347
    1UNL    H22   51  -0.103  -0.021  -0.139
   0.00000   0.00000   0.00000   0.00000   0.00000   0.00000   0.00000   0.00000   0.00000
Generated with MDTraj, t= 17.0
 51
    1UNL     C1    1   0.227   0.190   0.015
    1UNL     C2    2   0.180   0.082   0.110
    1UNL     C3    3   0.220   0.134   0.255
    1UNL     C4    4   0.255  -0.051   0.068
    1UNL     C5    5   0.393  -0.068   0.093
    1UNL     C6    6   0.463  -0.174   0.049
    1UNL     C7    7   0.404  -0.274  -0.036
    1UNL     O1    8   0.474  -0.395  -0.073
    1UNL     C8    9   0.263  -0.264  -0.054
    1UNL     C9   10   0.188  -0.156   0.001
    1UNL     O2   11   0.053  -0.157  -0.007
    1UNL    C10   12  -0.023  -0.073   0.091
    1UNL    C11   13  -0.174  -0.096   0.086
    1UNL    C12   14  -0.247  -0.045   0.191
    1UNL    C13   15  -0.386  -0.041   0.183
    1UNL    C14   16  -0.455  -0.104   0.076
    1UNL     O3   17  -0.596  -0.107   0.074
    1UNL    C15   18  -0.382  -0.175  -0.019
    1UNL    C16   19  -0.243  -0.171  -0.013
    1UNL     O4   20  -0.178  -0.240  -0.115
    1UNL    C17   21   0.023   0.072   0.090
    1UNL    C18   22  -0.035   0.138  -0.032
    1UNL    C19   23  -0.064   0.272  -0.023
    1UNL    C20   24  -0.118   0.346  -0.125
    1UNL     O5   25  -0.122   0.484  -0.109
    1UNL    C21   26  -0.163   0.271  -0.235
    1UNL    C22   27  -0.154   0.134  -0.248
    1UNL     O6   28  -0.215   0.066  -0.347
    1UNL    C23   29  -0.070   0.076  -0.146
    1UNL     H1   30   0.337   0.197   0.004
    1UNL     H2   31   0.183   0.186  -0.088
    1UNL     H3   32   0.202   0.285   0.058
    1UNL     H4   33   0.217   0.245   0.251
    1UNL     H5   34   0.142   0.108   0.334
    1UNL     H6   35   0.328   0.105   0.281
    1UNL     H7   36   0.439   0.010   0.157
    1UNL     H8   37   0.571  -0.173   0.063
    1UNL     H9   38   0.568  -0.382  -0.049
    1UNL    H10   39   0.219  -0.344  -0.112
    1UNL    H11   40   0.013  -0.120   0.182
    1UNL    H12   41  -0.200   0.008   0.276
    1UNL    H13   42  -0.444  -0.000   0.265
    1UNL    H14   43  -0.622  -0.191   0.026
    1UNL    H15   44  -0.427  -0.247  -0.077
    1UNL    H16   45  -0.084  -0.244  -0.082
    1UNL    H17   46  -0.019   0.121   0.181
    1UNL    H18   47  -0.035   0.323   0.066
    1UNL    H19   48  -0.198   0.523  -0.153
    1UNL    H20   49  -0.200   0.320  -0.317
    1UNL    H21   50  -0.209  -0.030  -0.322
    1UNL    H22   51  -0.053  -0.028  -0.153
   0.00000   0.00000   0.00000   0.00000   0.00000   0.00000   0.00000   0.00000   0.00000
Generated with MDTraj, t= 18.0
 51
    1UNL     C1    1   0.240   0.211   0.071
    1UNL     C2    2   0.180   0.079   0.120
    1UNL     C3    3   0.197   0.072   0.273
    1UNL     C4    4   0.248  -0.045   0.062
    1UNL     C5    5   0.385  -0.057   0.080
    1UNL     C6    6   0.456  -0.161   0.019
    1UNL     C7    7   0.394  -0.268  -0.044
    1UNL     O1    8   0.469  -0.371  -0.093
    1UNL     C8    9   0.250  -0.265  -0.052
    1UNL     C9   10   0.181  -0.157   0.005
    1UNL     O2   11   0.036  -0.161  -0.003
    1UNL    C10   12  -0.033  -0.082   0.092
    1UNL    C11   13  -0.174  -0.097   0.091
    1UNL    C12   14  -0.244  -0.035   0.193
    1UNL    C13   15  -0.381  -0.036   0.194
    1UNL    C14   16  -0.450  -0.099   0.094
    1UNL     O3   17  -0.589  -0.101   0.099
    1UNL    C15   18  -0.378  -0.164  -0.004
    1UNL    C16   19  -0.237  -0.163  -0.015
    1UNL     O4   20  -0.185  -0.244  -0.119
    1UNL    C17   21   0.019   0.070   0.094
    1UNL    C18   22  -0.033   0.140  -0.030
    1UNL    C19   23  -0.063   0.276  -0.026
    1UNL    C20   24  -0.124   0.339  -0.137
    1UNL     O5   25  -0.135   0.482  -0.142
    1UNL    C21   26  -0.158   0.267  -0.251
    1UNL    C22   27  -0.129   0.129  -0.259
    1UNL     O6   28  -0.164   0.051  -0.363
    1UNL    C23   29  -0.062   0.073  -0.148
    1UNL     H1   30   0.349   0.220   0.082
    1UNL     H2   31   0.214   0.230  -0.034
    1UNL     H3   32   0.193   0.291   0.132
    1UNL     H4   33   0.112   0.121   0.339
    1UNL     H5   34   0.204  -0.034   0.311
    1UNL     H6   35   0.293   0.121   0.301
    1UNL     H7   36   0.431   0.033   0.111
    1UNL     H8   37   0.557  -0.179   0.030
    1UNL     H9   38   0.567  -0.354  -0.073
    1UNL    H10   39   0.198  -0.341  -0.103
    1UNL    H11   40   0.010  -0.132   0.184
    1UNL    H12   41  -0.191   0.011   0.272
    1UNL    H13   42  -0.428   0.022   0.271
    1UNL    H14   43  -0.630  -0.181   0.060
    1UNL    H15   44  -0.428  -0.241  -0.069
    1UNL    H16   45  -0.100  -0.283  -0.089
    1UNL    H17   46  -0.023   0.125   0.185
    1UNL    H18   47  -0.027   0.341   0.054
    1UNL    H19   48  -0.208   0.510  -0.197
    1UNL    H20   49  -0.220   0.312  -0.332
    1UNL    H21   50  -0.168  -0.041  -0.340
    1UNL    H22   51  -0.025  -0.027  -0.172
   0.00000   0.00000   0.00000   0.00000   0.00000   0.00000   0.00000   0.00000   0.00000
Generated with MDTraj, t= 19.0
 51
    1UNL     C1    1   0.253   0.211   0.094
    1UNL     C2    2   0.169   0.075   0.128
    1UNL     C3    3   0.186   0.049   0.279
    1UNL     C4    4   0.250  -0.035   0.060
    1UNL     C5    5   0.389  -0.030   0.045
    1UNL     C6    6   0.450  -0.136  -0.013
    1UNL     C7    7   0.382  -0.248  -0.063
    1UNL     O1    8   0.452  -0.353  -0.112
    1UNL     C8    9   0.242  -0.248  -0.052
    1UNL     C9   10   0.171  -0.142   0.002
    1UNL     O2   11   0.028  -0.157   0.008
    1UNL    C10   12  -0.031  -0.080   0.105
    1UNL    C11   13  -0.184  -0.100   0.107
    1UNL    C12   14  -0.251  -0.037   0.210
    1UNL    C13   15  -0.391  -0.044   0.212
    1UNL    C14   16  -0.466  -0.102   0.108
    1UNL     O3   17  -0.602  -0.100   0.101
    1UNL    C15   18  -0.399  -0.164   0.003
    1UNL    C16   19  -0.258  -0.162   0.002
    1UNL     O4   20  -0.197  -0.227  -0.101
    1UNL    C17   21   0.017   0.072   0.101
    1UNL    C18   22  -0.024   0.128  -0.033
    1UNL    C19   23  -0.060   0.260  -0.031
    1UNL    C20   24  -0.106   0.322  -0.148
    1UNL     O5   25  -0.151   0.454  -0.135
    1UNL    C21   26  -0.108   0.256  -0.268
    1UNL    C22   27  -0.087   0.115  -0.265
    1UNL     O6   28  -0.106   0.051  -0.389
    1UNL    C23   29  -0.051   0.046  -0.149
    1UNL     H1   30   0.334   0.224   0.166
    1UNL     H2   31   0.298   0.210  -0.004
    1UNL     H3   32   0.183   0.299   0.103
    1UNL     H4   33   0.140   0.136   0.342
    1UNL     H5   34   0.132  -0.042   0.321
    1UNL     H6   35   0.294   0.039   0.310
    1UNL     H7   36   0.459   0.043   0.088
    1UNL     H8   37   0.563  -0.122  -0.034
    1UNL     H9   38   0.549  -0.331  -0.088
    1UNL    H10   39   0.185  -0.335  -0.092
    1UNL    H11   40   0.011  -0.124   0.202
    1UNL    H12   41  -0.209   0.043   0.273
    1UNL    H13   42  -0.458   0.001   0.284
    1UNL    H14   43  -0.641  -0.172   0.052
    1UNL    H15   44  -0.447  -0.201  -0.083
    1UNL    H16   45  -0.105  -0.200  -0.101
    1UNL    H17   46  -0.030   0.129   0.191
    1UNL    H18   47  -0.048   0.314   0.060
    1UNL    H19   48  -0.228   0.467  -0.195
    1UNL    H20   49  -0.139   0.302  -0.361
    1UNL    H21   50  -0.118  -0.040  -0.372
    1UNL    H22   51  -0.009  -0.053  -0.159
   0.00000   0.00000   0.00000   0.00000   0.00000   0.00000   0.00000   0.00000   0.00000
Generated with MDTraj, t= 20.0
 51
    1UNL     C1    1   0.212   0.217   0.085
    1UNL     C2    2   0.167   0.082   0.128
    1UNL     C3    3   0.181   0.049   0.274
    1UNL     C4    4   0.238  -0.030   0.050
    1UNL     C5    5   0.376  -0.019   0.028
    1UNL     C6    6   0.446  -0.127  -0.036
    1UNL     C7    7   0.375  -0.240  -0.079
    1UNL     O1    8   0.434  -0.331  -0.171
    1UNL     C8    9   0.242  -0.255  -0.050
    1UNL     C9   10   0.170  -0.153   0.017
    1UNL     O2   11   0.034  -0.178   0.041
    1UNL    C10   12  -0.036  -0.089   0.122
    1UNL    C11   13  -0.188  -0.101   0.119
    1UNL    C12   14  -0.263  -0.040   0.219
    1UNL    C13   15  -0.402  -0.035   0.219
    1UNL    C14   16  -0.473  -0.095   0.115
    1UNL     O3   17  -0.617  -0.100   0.120
    1UNL    C15   18  -0.401  -0.153   0.011
    1UNL    C16   19  -0.260  -0.155   0.007
    1UNL     O4   20  -0.201  -0.219  -0.103
    1UNL    C17   21   0.005   0.065   0.111
    1UNL    C18   22  -0.042   0.122  -0.018
    1UNL    C19   23  -0.101   0.248  -0.023
    1UNL    C20   24  -0.111   0.313  -0.144
    1UNL     O5   25  -0.138   0.447  -0.164
    1UNL    C21   26  -0.089   0.241  -0.262
    1UNL    C22   27  -0.033   0.115  -0.263
    1UNL     O6   28  -0.012   0.050  -0.389
    1UNL    C23   29  -0.013   0.054  -0.139
    1UNL     H1   30   0.314   0.221   0.126
    1UNL     H2   31   0.225   0.218  -0.023
    1UNL     H3   32   0.151   0.303   0.123
    1UNL     H4   33   0.121   0.116   0.342
    1UNL     H5   34   0.147  -0.057   0.296
    1UNL     H6   35   0.294   0.051   0.305
    1UNL     H7   36   0.431   0.067   0.070
    1UNL     H8   37   0.546  -0.129  -0.054
    1UNL     H9   38   0.535  -0.329  -0.171
    1UNL    H10   39   0.203  -0.350  -0.060
    1UNL    H11   40  -0.006  -0.131   0.225
    1UNL    H12   41  -0.210   0.021   0.289
    1UNL    H13   42  -0.462   0.004   0.301
    1UNL    H14   43  -0.657  -0.166   0.065
    1UNL    H15   44  -0.449  -0.211  -0.066
    1UNL    H16   45  -0.104  -0.236  -0.092
    1UNL    H17   46  -0.059   0.116   0.194
    1UNL    H18   47  -0.138   0.293   0.070
    1UNL    H19   48  -0.185   0.462  -0.252
    1UNL    H20   49  -0.121   0.286  -0.352
    1UNL    H21   50   0.015  -0.037  -0.370
    1UNL    H22   51   0.012  -0.049  -0.130
   0.00000   0.00000   0.00000   0.00000   0.00000   0.00000   0.00000   0.00000   0.00000
Generated with MDTraj, t= 21.0
 51
    1UNL     C1    1   0.201   0.220   0.080
    1UNL     C2    2   0.153   0.071   0.136
    1UNL     C3    3   0.176   0.066   0.288
    1UNL     C4    4   0.231  -0.042   0.062
    1UNL     C5    5   0.358  -0.020   0.012
    1UNL     C6    6   0.421  -0.111  -0.065
    1UNL     C7    7   0.349  -0.222  -0.111
    1UNL     O1    8   0.407  -0.319  -0.194
    1UNL     C8    9   0.220  -0.242  -0.070
    1UNL     C9   10   0.157  -0.152   0.017
    1UNL     O2   11   0.027  -0.184   0.062
    1UNL    C10   12  -0.052  -0.086   0.137
    1UNL    C11   13  -0.201  -0.104   0.135
    1UNL    C12   14  -0.269  -0.052   0.245
    1UNL    C13   15  -0.405  -0.048   0.233
    1UNL    C14   16  -0.474  -0.090   0.118
    1UNL     O3   17  -0.611  -0.096   0.116
    1UNL    C15   18  -0.399  -0.147   0.014
    1UNL    C16   19  -0.264  -0.151   0.022
    1UNL     O4   20  -0.198  -0.213  -0.082
    1UNL    C17   21   0.003   0.058   0.116
    1UNL    C18   22  -0.020   0.110  -0.023
    1UNL    C19   23  -0.080   0.233  -0.035
    1UNL    C20   24  -0.100   0.299  -0.156
    1UNL     O5   25  -0.170   0.417  -0.174
    1UNL    C21   26  -0.061   0.227  -0.271
    1UNL    C22   27   0.011   0.115  -0.262
    1UNL     O6   28   0.052   0.066  -0.384
    1UNL    C23   29   0.038   0.064  -0.137
    1UNL     H1   30   0.309   0.246   0.079
    1UNL     H2   31   0.163   0.248  -0.019
    1UNL     H3   32   0.156   0.294   0.146
    1UNL     H4   33   0.097   0.136   0.323
    1UNL     H5   34   0.145  -0.033   0.340
    1UNL     H6   35   0.282   0.102   0.320
    1UNL     H7   36   0.415   0.062   0.034
    1UNL     H8   37   0.533  -0.097  -0.072
    1UNL     H9   38   0.504  -0.331  -0.185
    1UNL    H10   39   0.156  -0.323  -0.114
    1UNL    H11   40  -0.014  -0.124   0.241
    1UNL    H12   41  -0.224  -0.030   0.341
    1UNL    H13   42  -0.455   0.001   0.314
    1UNL    H14   43  -0.638  -0.129   0.029
    1UNL    H15   44  -0.445  -0.219  -0.055
    1UNL    H16   45  -0.100  -0.206  -0.067
    1UNL    H17   46  -0.061   0.131   0.182
    1UNL    H18   47  -0.128   0.274   0.051
    1UNL    H19   48  -0.233   0.410  -0.253
    1UNL    H20   49  -0.069   0.288  -0.364
    1UNL    H21   50   0.111  -0.009  -0.381
    1UNL    H22   51   0.095  -0.030  -0.138
   0.00000   0.00000   0.00000   0.00000   0.00000   0.00000   0.00000   0.00000   0.00000
Generated with MDTraj, t= 22.0
 51
    1UNL     C1    1   0.220   0.204   0.114
    1UNL     C2    2   0.160   0.069   0.143
    1UNL     C3    3   0.179   0.033   0.292
    1UNL     C4    4   0.230  -0.035   0.064
    1UNL     C5    5   0.358  -0.021   0.015
    1UNL     C6    6   0.416  -0.113  -0.080
    1UNL     C7    7   0.342  -0.229  -0.110
    1UNL     O1    8   0.380  -0.298  -0.219
    1UNL     C8    9   0.220  -0.254  -0.050
    1UNL     C9   10   0.159  -0.155   0.033
    1UNL     O2   11   0.030  -0.181   0.071
    1UNL    C10   12  -0.051  -0.073   0.139
    1UNL    C11   13  -0.191  -0.085   0.132
    1UNL    C12   14  -0.264  -0.045   0.245
    1UNL    C13   15  -0.403  -0.048   0.242
    1UNL    C14   16  -0.473  -0.099   0.130
    1UNL     O3   17  -0.613  -0.093   0.122
    1UNL    C15   18  -0.398  -0.141   0.022
    1UNL    C16   19  -0.259  -0.137   0.018
    1UNL     O4   20  -0.192  -0.191  -0.090
    1UNL    C17   21   0.001   0.063   0.108
    1UNL    C18   22  -0.034   0.110  -0.032
    1UNL    C19   23  -0.113   0.219  -0.044
    1UNL    C20   24  -0.133   0.278  -0.174
    1UNL     O5   25  -0.205   0.398  -0.199
    1UNL    C21   26  -0.052   0.225  -0.280
    1UNL    C22   27   0.030   0.117  -0.266
    1UNL     O6   28   0.104   0.080  -0.376
    1UNL    C23   29   0.038   0.060  -0.138
    1UNL     H1   30   0.326   0.206   0.144
    1UNL     H2   31   0.217   0.214   0.003
    1UNL     H3   32   0.167   0.286   0.158
    1UNL     H4   33   0.131   0.104   0.367
    1UNL     H5   34   0.144  -0.073   0.318
    1UNL     H6   35   0.292   0.026   0.306
    1UNL     H7   36   0.412   0.073   0.050
    1UNL     H8   37   0.517  -0.100  -0.116
    1UNL     H9   38   0.475  -0.292  -0.229
    1UNL    H10   39   0.172  -0.348  -0.067
    1UNL    H11   40  -0.023  -0.093   0.251
    1UNL    H12   41  -0.216   0.013   0.323
    1UNL    H13   42  -0.465  -0.008   0.322
    1UNL    H14   43  -0.645  -0.099   0.028
    1UNL    H15   44  -0.449  -0.193  -0.053
    1UNL    H16   45  -0.094  -0.189  -0.070
    1UNL    H17   46  -0.038   0.151   0.176
    1UNL    H18   47  -0.160   0.260   0.044
    1UNL    H19   48  -0.246   0.397  -0.289
    1UNL    H20   49  -0.030   0.287  -0.362
    1UNL    H21   50   0.179   0.026  -0.337
    1UNL    H22   51   0.100  -0.026  -0.126
   0.00000   0.00000   0.00000   0.00000   0.00000   0.00000   0.00000   0.00000   0.00000
Generated with MDTraj, t= 23.0
 51
    1UNL     C1    1   0.235   0.211   0.117
    1UNL     C2    2   0.170   0.072   0.154
    1UNL     C3    3   0.196   0.030   0.301
    1UNL     C4    4   0.237  -0.044   0.069
    1UNL     C5    5   0.362  -0.025   0.011
    1UNL     C6    6   0.415  -0.115  -0.077
    1UNL     C7    7   0.336  -0.220  -0.117
    1UNL     O1    8   0.380  -0.321  -0.208
    1UNL     C8    9   0.205  -0.237  -0.064
    1UNL     C9   10   0.154  -0.147   0.025
    1UNL     O2   11   0.019  -0.173   0.052
    1UNL    C10   12  -0.040  -0.072   0.143
    1UNL    C11   13  -0.195  -0.070   0.130
    1UNL    C12   14  -0.271  -0.029   0.239
    1UNL    C13   15  -0.405  -0.050   0.244
    1UNL    C14   16  -0.475  -0.091   0.126
    1UNL     O3   17  -0.614  -0.102   0.122
    1UNL    C15   18  -0.402  -0.128   0.010
    1UNL    C16   19  -0.262  -0.117   0.010
    1UNL     O4   20  -0.196  -0.162  -0.106
    1UNL    C17   21   0.021   0.067   0.119
    1UNL    C18   22  -0.014   0.114  -0.023
    1UNL    C19   23  -0.125   0.192  -0.043
    1UNL    C20   24  -0.138   0.250  -0.170
    1UNL     O5   25  -0.243   0.340  -0.183
    1UNL    C21   26  -0.064   0.221  -0.279
    1UNL    C22   27   0.037   0.127  -0.261
    1UNL     O6   28   0.115   0.081  -0.370
    1UNL    C23   29   0.063   0.073  -0.135
    1UNL     H1   30   0.327   0.235   0.172
    1UNL     H2   31   0.248   0.232   0.009
    1UNL     H3   32   0.158   0.280   0.149
    1UNL     H4   33   0.135   0.098   0.376
    1UNL     H5   34   0.166  -0.074   0.330
    1UNL     H6   35   0.304   0.032   0.327
    1UNL     H7   36   0.433   0.043   0.051
    1UNL     H8   37   0.506  -0.096  -0.128
    1UNL     H9   38   0.473  -0.342  -0.202
    1UNL    H10   39   0.145  -0.320  -0.090
    1UNL    H11   40  -0.016  -0.109   0.252
    1UNL    H12   41  -0.222   0.035   0.310
    1UNL    H13   42  -0.464  -0.014   0.325
    1UNL    H14   43  -0.652  -0.107   0.028
    1UNL    H15   44  -0.449  -0.138  -0.091
    1UNL    H16   45  -0.100  -0.148  -0.092
    1UNL    H17   46  -0.031   0.147   0.188
    1UNL    H18   47  -0.201   0.214   0.032
    1UNL    H19   48  -0.285   0.333  -0.270
    1UNL    H20   49  -0.077   0.270  -0.375
    1UNL    H21   50   0.187   0.017  -0.334
    1UNL    H22   51   0.139  -0.000  -0.135
   0.00000   0.00000   0.00000   0.00000   0.00000   0.00000   0.00000   0.00000   0.00000
Generated with MDTraj, t= 24.0
 51
    1UNL     C1    1   0.231   0.197   0.116
    1UNL     C2    2   0.178   0.058   0.149
    1UNL     C3    3   0.201   0.040   0.300
    1UNL     C4    4   0.245  -0.053   0.074
    1UNL     C5    5   0.379  -0.058   0.044
    1UNL     C6    6   0.429  -0.149  -0.049
    1UNL     C7    7   0.348  -0.248  -0.108
    1UNL     O1    8   0.396  -0.334  -0.203
    1UNL     C8    9   0.218  -0.257  -0.066
    1UNL     C9   10   0.165  -0.163   0.027
    1UNL     O2   11   0.028  -0.173   0.051
    1UNL    C10   12  -0.034  -0.075   0.137
    1UNL    C11   13  -0.187  -0.068   0.129
    1UNL    C12   14  -0.263  -0.035   0.243
    1UNL    C13   15  -0.398  -0.048   0.234
    1UNL    C14   16  -0.468  -0.077   0.116
    1UNL     O3   17  -0.607  -0.087   0.113
    1UNL    C15   18  -0.394  -0.098  -0.002
    1UNL    C16   19  -0.253  -0.102   0.010
    1UNL     O4   20  -0.184  -0.127  -0.108
    1UNL    C17   21   0.025   0.062   0.109
    1UNL    C18   22  -0.009   0.136  -0.023
    1UNL    C19   23  -0.133   0.209  -0.048
    1UNL    C20   24  -0.177   0.248  -0.171
    1UNL     O5   25  -0.306   0.308  -0.187
    1UNL    C21   26  -0.104   0.208  -0.277
    1UNL    C22   27   0.024   0.144  -0.263
    1UNL     O6   28   0.096   0.114  -0.378
    1UNL    C23   29   0.070   0.112  -0.135
    1UNL     H1   30   0.337   0.190   0.136
    1UNL     H2   31   0.217   0.227   0.012
    1UNL     H3   32   0.193   0.279   0.180
    1UNL     H4   33   0.124   0.093   0.368
    1UNL     H5   34   0.198  -0.069   0.318
    1UNL     H6   35   0.307   0.072   0.319
    1UNL     H7   36   0.436   0.021   0.083
    1UNL     H8   37   0.538  -0.153  -0.076
    1UNL     H9   38   0.484  -0.362  -0.170
    1UNL    H10   39   0.148  -0.333  -0.113
    1UNL    H11   40  -0.004  -0.100   0.247
    1UNL    H12   41  -0.213  -0.010   0.336
    1UNL    H13   42  -0.459  -0.022   0.320
    1UNL    H14   43  -0.640  -0.094   0.016
    1UNL    H15   44  -0.440  -0.136  -0.087
    1UNL    H16   45  -0.093  -0.142  -0.082
    1UNL    H17   46  -0.036   0.118   0.191
    1UNL    H18   47  -0.198   0.217   0.034
    1UNL    H19   48  -0.354   0.248  -0.245
    1UNL    H20   49  -0.155   0.200  -0.374
    1UNL    H21   50   0.186   0.070  -0.349
    1UNL    H22   51   0.162   0.055  -0.125
   0.00000   0.00000   0.00000   0.00000   0.00000   0.00000   0.00000   0.00000   0.00000
Generated with MDTraj, t= 25.0
 51
    1UNL     C1    1   0.235   0.206   0.098
    1UNL     C2    2   0.183   0.060   0.142
    1UNL     C3    3   0.226   0.055   0.295
    1UNL     C4    4   0.245  -0.054   0.064
    1UNL     C5    5   0.387  -0.064   0.047
    1UNL     C6    6   0.443  -0.160  -0.028
    1UNL     C7    7   0.368  -0.261  -0.083
    1UNL     O1    8   0.412  -0.372  -0.152
    1UNL     C8    9   0.233  -0.260  -0.059
    1UNL     C9   10   0.168  -0.156   0.010
    1UNL     O2   11   0.028  -0.164   0.017
    1UNL    C10   12  -0.037  -0.080   0.115
    1UNL    C11   13  -0.185  -0.083   0.113
    1UNL    C12   14  -0.254  -0.058   0.235
    1UNL    C13   15  -0.394  -0.051   0.232
    1UNL    C14   16  -0.465  -0.057   0.110
    1UNL     O3   17  -0.604  -0.046   0.105
    1UNL    C15   18  -0.392  -0.081  -0.004
    1UNL    C16   19  -0.254  -0.091  -0.011
    1UNL     O4   20  -0.186  -0.112  -0.130
    1UNL    C17   21   0.030   0.060   0.112
    1UNL    C18   22  -0.014   0.127  -0.023
    1UNL    C19   23  -0.147   0.183  -0.034
    1UNL    C20   24  -0.206   0.213  -0.153
    1UNL     O5   25  -0.331   0.274  -0.151
    1UNL    C21   26  -0.126   0.206  -0.267
    1UNL    C22   27   0.007   0.158  -0.268
    1UNL     O6   28   0.085   0.145  -0.378
    1UNL    C23   29   0.054   0.117  -0.143
    1UNL     H1   30   0.337   0.223   0.128
    1UNL     H2   31   0.228   0.231  -0.007
    1UNL     H3   32   0.177   0.286   0.150
    1UNL     H4   33   0.194   0.151   0.337
    1UNL     H5   34   0.168  -0.022   0.353
    1UNL     H6   35   0.339   0.038   0.306
    1UNL     H7   36   0.459   0.020   0.077
    1UNL     H8   37   0.544  -0.158  -0.049
    1UNL     H9   38   0.504  -0.400  -0.120
    1UNL    H10   39   0.174  -0.323  -0.114
    1UNL    H11   40  -0.006  -0.118   0.221
    1UNL    H12   41  -0.200  -0.066   0.326
    1UNL    H13   42  -0.453  -0.029   0.318
    1UNL    H14   43  -0.630  -0.024   0.010
    1UNL    H15   44  -0.457  -0.093  -0.092
    1UNL    H16   45  -0.093  -0.139  -0.117
    1UNL    H17   46  -0.023   0.118   0.196
    1UNL    H18   47  -0.202   0.195   0.063
    1UNL    H19   48  -0.329   0.345  -0.080
    1UNL    H20   49  -0.173   0.230  -0.357
    1UNL    H21   50   0.168   0.092  -0.349
    1UNL    H22   51   0.151   0.069  -0.148
   0.00000   0.00000   0.00000   0.00000   0.00000   0.00000   0.00000   0.00000   0.00000
Generated with MDTraj, t= 26.0
 51
    1UNL     C1    1   0.239   0.193   0.089
    1UNL     C2    2   0.178   0.060   0.132
    1UNL     C3    3   0.220   0.033   0.279
    1UNL     C4    4   0.242  -0.053   0.052
    1UNL     C5    5   0.385  -0.055   0.047
    1UNL     C6    6   0.458  -0.161  -0.006
    1UNL     C7    7   0.385  -0.275  -0.054
    1UNL     O1    8   0.449  -0.388  -0.100
    1UNL     C8    9   0.245  -0.272  -0.055
    1UNL     C9   10   0.177  -0.168   0.002
    1UNL     O2   11   0.037  -0.165  -0.009
    1UNL    C10   12  -0.025  -0.089   0.098
    1UNL    C11   13  -0.176  -0.091   0.104
    1UNL    C12   14  -0.240  -0.072   0.224
    1UNL    C13   15  -0.376  -0.044   0.227
    1UNL    C14   16  -0.455  -0.047   0.107
    1UNL     O3   17  -0.589  -0.009   0.109
    1UNL    C15   18  -0.389  -0.071  -0.016
    1UNL    C16   19  -0.254  -0.091  -0.016
    1UNL     O4   20  -0.190  -0.127  -0.136
    1UNL    C17   21   0.024   0.058   0.103
    1UNL    C18   22  -0.036   0.121  -0.027
    1UNL    C19   23  -0.153   0.194  -0.022
    1UNL    C20   24  -0.211   0.248  -0.140
    1UNL     O5   25  -0.348   0.271  -0.120
    1UNL    C21   26  -0.143   0.239  -0.264
    1UNL    C22   27  -0.026   0.164  -0.268
    1UNL     O6   28   0.055   0.155  -0.378
    1UNL    C23   29   0.022   0.107  -0.151
    1UNL     H1   30   0.337   0.208   0.135
    1UNL     H2   31   0.249   0.193  -0.020
    1UNL     H3   32   0.176   0.278   0.117
    1UNL     H4   33   0.171   0.093   0.356
    1UNL     H5   34   0.188  -0.071   0.311
    1UNL     H6   35   0.332   0.041   0.296
    1UNL     H7   36   0.436   0.023   0.091
    1UNL     H8   37   0.566  -0.161  -0.036
    1UNL     H9   38   0.548  -0.392  -0.071
    1UNL    H10   39   0.195  -0.364  -0.097
    1UNL    H11   40   0.024  -0.140   0.191
    1UNL    H12   41  -0.184  -0.064   0.318
    1UNL    H13   42  -0.424  -0.048   0.324
    1UNL    H14   43  -0.615   0.018   0.018
    1UNL    H15   44  -0.438  -0.063  -0.110
    1UNL    H16   45  -0.097  -0.141  -0.105
    1UNL    H17   46  -0.028   0.114   0.188
    1UNL    H18   47  -0.206   0.202   0.068
    1UNL    H19   48  -0.400   0.277  -0.208
    1UNL    H20   49  -0.171   0.302  -0.350
    1UNL    H21   50   0.104   0.068  -0.381
    1UNL    H22   51   0.117   0.064  -0.170
   0.00000   0.00000   0.00000   0.00000   0.00000   0.00000   0.00000   0.00000   0.00000
Generated with MDTraj, t= 27.0
 51
    1UNL     C1    1   0.233   0.195   0.073
    1UNL     C2    2   0.175   0.061   0.121
    1UNL     C3    3   0.199   0.055   0.275
    1UNL     C4    4   0.251  -0.055   0.056
    1UNL     C5    5   0.390  -0.060   0.060
    1UNL     C6    6   0.462  -0.169   0.017
    1UNL     C7    7   0.393  -0.278  -0.042
    1UNL     O1    8   0.464  -0.388  -0.082
    1UNL     C8    9   0.253  -0.277  -0.044
    1UNL     C9   10   0.182  -0.171  -0.001
    1UNL     O2   11   0.045  -0.179  -0.014
    1UNL    C10   12  -0.024  -0.102   0.091
    1UNL    C11   13  -0.172  -0.112   0.098
    1UNL    C12   14  -0.236  -0.072   0.214
    1UNL    C13   15  -0.370  -0.045   0.217
    1UNL    C14   16  -0.446  -0.046   0.103
    1UNL     O3   17  -0.578   0.005   0.115
    1UNL    C15   18  -0.385  -0.076  -0.021
    1UNL    C16   19  -0.249  -0.114  -0.024
    1UNL     O4   20  -0.192  -0.146  -0.147
    1UNL    C17   21   0.017   0.050   0.092
    1UNL    C18   22  -0.040   0.118  -0.034
    1UNL    C19   23  -0.155   0.187  -0.016
    1UNL    C20   24  -0.224   0.248  -0.129
    1UNL     O5   25  -0.323   0.345  -0.086
    1UNL    C21   26  -0.165   0.231  -0.258
    1UNL    C22   27  -0.043   0.165  -0.274
    1UNL     O6   28   0.028   0.161  -0.400
    1UNL    C23   29   0.015   0.103  -0.161
    1UNL     H1   30   0.342   0.198   0.094
    1UNL     H2   31   0.211   0.217  -0.033
    1UNL     H3   32   0.185   0.270   0.134
    1UNL     H4   33   0.130   0.118   0.335
    1UNL     H5   34   0.181  -0.044   0.325
    1UNL     H6   35   0.299   0.093   0.304
    1UNL     H7   36   0.435   0.025   0.117
    1UNL     H8   37   0.566  -0.160   0.022
    1UNL     H9   38   0.559  -0.376  -0.052
    1UNL    H10   39   0.209  -0.359  -0.094
    1UNL    H11   40   0.024  -0.148   0.186
    1UNL    H12   41  -0.180  -0.076   0.305
    1UNL    H13   42  -0.415  -0.031   0.313
    1UNL    H14   43  -0.624   0.016   0.031
    1UNL    H15   44  -0.436  -0.056  -0.112
    1UNL    H16   45  -0.096  -0.143  -0.131
    1UNL    H17   46  -0.039   0.099   0.178
    1UNL    H18   47  -0.196   0.197   0.083
    1UNL    H19   48  -0.409   0.323  -0.129
    1UNL    H20   49  -0.205   0.288  -0.337
    1UNL    H21   50   0.106   0.108  -0.382
    1UNL    H22   51   0.102   0.037  -0.170
   0.00000   0.00000   0.00000   0.00000   0.00000   0.00000   0.00000   0.00000   0.00000
Generated with MDTraj, t= 28.0
 51
    1UNL     C1    1   0.232   0.186   0.030
    1UNL     C2    2   0.172   0.066   0.110
    1UNL     C3    3   0.204   0.105   0.255
    1UNL     C4    4   0.250  -0.062   0.065
    1UNL     C5    5   0.389  -0.075   0.080
    1UNL     C6    6   0.459  -0.178   0.027
    1UNL     C7    7   0.399  -0.281  -0.039
    1UNL     O1    8   0.472  -0.384  -0.091
    1UNL     C8    9   0.260  -0.272  -0.060
    1UNL     C9   10   0.185  -0.166   0.002
    1UNL     O2   11   0.040  -0.178  -0.010
    1UNL    C10   12  -0.032  -0.110   0.098
    1UNL    C11   13  -0.177  -0.116   0.097
    1UNL    C12   14  -0.244  -0.080   0.212
    1UNL    C13   15  -0.381  -0.056   0.209
    1UNL    C14   16  -0.458  -0.062   0.091
    1UNL     O3   17  -0.589  -0.022   0.098
    1UNL    C15   18  -0.386  -0.092  -0.023
    1UNL    C16   19  -0.248  -0.131  -0.024
    1UNL     O4   20  -0.184  -0.166  -0.139
    1UNL    C17   21   0.012   0.041   0.094
    1UNL    C18   22  -0.035   0.122  -0.021
    1UNL    C19   23  -0.140   0.210  -0.008
    1UNL    C20   24  -0.189   0.291  -0.110
    1UNL     O5   25  -0.297   0.384  -0.095
    1UNL    C21   26  -0.139   0.274  -0.237
    1UNL    C22   27  -0.046   0.174  -0.254
    1UNL     O6   28  -0.022   0.124  -0.385
    1UNL    C23   29   0.013   0.104  -0.147
    1UNL     H1   30   0.338   0.210   0.049
    1UNL     H2   31   0.226   0.161  -0.078
    1UNL     H3   32   0.175   0.276   0.042
    1UNL     H4   33   0.167   0.211   0.279
    1UNL     H5   34   0.150   0.044   0.329
    1UNL     H6   35   0.311   0.105   0.272
    1UNL     H7   36   0.450   0.005   0.116
    1UNL     H8   37   0.567  -0.184   0.050
    1UNL     H9   38   0.569  -0.387  -0.075
    1UNL    H10   39   0.214  -0.347  -0.119
    1UNL    H11   40   0.006  -0.167   0.193
    1UNL    H12   41  -0.198  -0.102   0.309
    1UNL    H13   42  -0.439  -0.027   0.296
    1UNL    H14   43  -0.624  -0.031   0.010
    1UNL    H15   44  -0.434  -0.094  -0.122
    1UNL    H16   45  -0.090  -0.164  -0.119
    1UNL    H17   46  -0.042   0.090   0.181
    1UNL    H18   47  -0.195   0.209   0.092
    1UNL    H19   48  -0.359   0.361  -0.165
    1UNL    H20   49  -0.198   0.317  -0.318
    1UNL    H21   50   0.012   0.037  -0.379
    1UNL    H22   51   0.086   0.029  -0.158
   0.00000   0.00000   0.00000   0.00000   0.00000   0.00000   0.00000   0.00000   0.00000
Generated with MDTraj, t= 29.0
 51
    1UNL     C1    1   0.229   0.196   0.028
    1UNL     C2    2   0.179   0.074   0.111
    1UNL     C3    3   0.214   0.107   0.264
    1UNL     C4    4   0.254  -0.058   0.067
    1UNL     C5    5   0.393  -0.067   0.083
    1UNL     C6    6   0.457  -0.185   0.035
    1UNL     C7    7   0.382  -0.286  -0.035
    1UNL     O1    8   0.447  -0.382  -0.107
    1UNL     C8    9   0.247  -0.279  -0.043
    1UNL     C9   10   0.177  -0.165   0.006
    1UNL     O2   11   0.043  -0.169  -0.000
    1UNL    C10   12  -0.024  -0.097   0.104
    1UNL    C11   13  -0.175  -0.096   0.094
    1UNL    C12   14  -0.254  -0.068   0.204
    1UNL    C13   15  -0.390  -0.053   0.194
    1UNL    C14   16  -0.457  -0.093   0.077
    1UNL     O3   17  -0.601  -0.095   0.085
    1UNL    C15   18  -0.384  -0.127  -0.032
    1UNL    C16   19  -0.244  -0.131  -0.025
    1UNL     O4   20  -0.177  -0.165  -0.140
    1UNL    C17   21   0.025   0.056   0.100
    1UNL    C18   22  -0.028   0.130  -0.022
    1UNL    C19   23  -0.097   0.250  -0.002
    1UNL    C20   24  -0.166   0.310  -0.102
    1UNL     O5   25  -0.232   0.433  -0.092
    1UNL    C21   26  -0.163   0.250  -0.226
    1UNL    C22   27  -0.080   0.143  -0.255
    1UNL     O6   28  -0.044   0.132  -0.391
    1UNL    C23   29  -0.023   0.076  -0.147
    1UNL     H1   30   0.336   0.206   0.045
    1UNL     H2   31   0.219   0.182  -0.080
    1UNL     H3   32   0.180   0.292   0.054
    1UNL     H4   33   0.167   0.207   0.294
    1UNL     H5   34   0.172   0.033   0.331
    1UNL     H6   35   0.323   0.114   0.267
    1UNL     H7   36   0.440   0.009   0.140
    1UNL     H8   37   0.564  -0.198   0.034
    1UNL     H9   38   0.534  -0.348  -0.120
    1UNL    H10   39   0.189  -0.361  -0.087
    1UNL    H11   40   0.016  -0.154   0.199
    1UNL    H12   41  -0.211  -0.059   0.301
    1UNL    H13   42  -0.444  -0.025   0.284
    1UNL    H14   43  -0.642  -0.116   0.002
    1UNL    H15   44  -0.427  -0.136  -0.127
    1UNL    H16   45  -0.084  -0.172  -0.111
    1UNL    H17   46  -0.035   0.106   0.181
    1UNL    H18   47  -0.101   0.285   0.092
    1UNL    H19   48  -0.247   0.464  -0.182
    1UNL    H20   49  -0.229   0.289  -0.302
    1UNL    H21   50   0.015   0.059  -0.403
    1UNL    H22   51   0.037  -0.013  -0.168
   0.00000   0.00000   0.00000   0.00000   0.00000   0.00000   0.00000   0.00000   0.00000
Generated with MDTraj, t= 30.0
 51
    1UNL     C1    1   0.258   0.198   0.052
    1UNL     C2    2   0.179   0.075   0.117
    1UNL     C3    3   0.207   0.069   0.273
    1UNL     C4    4   0.250  -0.055   0.062
    1UNL     C5    5   0.386  -0.058   0.053
    1UNL     C6    6   0.453  -0.167   0.004
    1UNL     C7    7   0.380  -0.275  -0.039
    1UNL     O1    8   0.447  -0.395  -0.080
    1UNL     C8    9   0.240  -0.277  -0.041
    1UNL     C9   10   0.174  -0.161   0.009
    1UNL     O2   11   0.036  -0.156   0.004
    1UNL    C10   12  -0.032  -0.077   0.100
    1UNL    C11   13  -0.185  -0.084   0.082
    1UNL    C12   14  -0.261  -0.048   0.194
    1UNL    C13   15  -0.402  -0.062   0.185
    1UNL    C14   16  -0.464  -0.123   0.079
    1UNL     O3   17  -0.602  -0.146   0.082
    1UNL    C15   18  -0.382  -0.170  -0.026
    1UNL    C16   19  -0.247  -0.148  -0.028
    1UNL     O4   20  -0.170  -0.193  -0.134
    1UNL    C17   21   0.029   0.073   0.101
    1UNL    C18   22  -0.026   0.153  -0.022
    1UNL    C19   23  -0.081   0.276   0.002
    1UNL    C20   24  -0.137   0.340  -0.109
    1UNL     O5   25  -0.201   0.461  -0.099
    1UNL    C21   26  -0.111   0.289  -0.238
    1UNL    C22   27  -0.079   0.154  -0.257
    1UNL     O6   28  -0.115   0.094  -0.372
    1UNL    C23   29  -0.028   0.089  -0.147
    1UNL     H1   30   0.355   0.212   0.097
    1UNL     H2   31   0.276   0.178  -0.053
    1UNL     H3   32   0.202   0.295   0.058
    1UNL     H4   33   0.146   0.139   0.328
    1UNL     H5   34   0.168  -0.028   0.306
    1UNL     H6   35   0.316   0.077   0.299
    1UNL     H7   36   0.458   0.014   0.100
    1UNL     H8   37   0.558  -0.174   0.007
    1UNL     H9   38   0.536  -0.378  -0.107
    1UNL    H10   39   0.182  -0.361  -0.065
    1UNL    H11   40   0.001  -0.126   0.203
    1UNL    H12   41  -0.216  -0.008   0.284
    1UNL    H13   42  -0.463  -0.031   0.267
    1UNL    H14   43  -0.629  -0.178  -0.005
    1UNL    H15   44  -0.427  -0.189  -0.125
    1UNL    H16   45  -0.076  -0.185  -0.106
    1UNL    H17   46  -0.021   0.129   0.184
    1UNL    H18   47  -0.080   0.315   0.108
    1UNL    H19   48  -0.168   0.530  -0.162
    1UNL    H20   49  -0.145   0.339  -0.324
    1UNL    H21   50  -0.136   0.004  -0.345
    1UNL    H22   51  -0.006  -0.014  -0.163
   0.00000   0.00000   0.00000   0.00000   0.00000   0.00000   0.00000   0.00000   0.00000
Generated with MDTraj, t= 31.0
 51
    1UNL     C1    1   0.242   0.214   0.081
    1UNL     C2    2   0.174   0.077   0.118
    1UNL     C3    3   0.186   0.046   0.270
    1UNL     C4    4   0.245  -0.039   0.050
    1UNL     C5    5   0.382  -0.047   0.055
    1UNL     C6    6   0.451  -0.159  -0.000
    1UNL     C7    7   0.381  -0.269  -0.040
    1UNL     O1    8   0.443  -0.390  -0.068
    1UNL     C8    9   0.242  -0.257  -0.048
    1UNL     C9   10   0.175  -0.142  -0.003
    1UNL     O2   11   0.033  -0.152   0.000
    1UNL    C10   12  -0.038  -0.080   0.095
    1UNL    C11   13  -0.184  -0.091   0.080
    1UNL    C12   14  -0.262  -0.036   0.178
    1UNL    C13   15  -0.397  -0.066   0.182
    1UNL    C14   16  -0.461  -0.141   0.084
    1UNL     O3   17  -0.598  -0.154   0.094
    1UNL    C15   18  -0.381  -0.182  -0.025
    1UNL    C16   19  -0.241  -0.171  -0.026
    1UNL     O4   20  -0.171  -0.233  -0.128
    1UNL    C17   21   0.012   0.069   0.095
    1UNL    C18   22  -0.040   0.147  -0.024
    1UNL    C19   23  -0.059   0.281  -0.007
    1UNL    C20   24  -0.099   0.355  -0.122
    1UNL     O5   25  -0.107   0.495  -0.096
    1UNL    C21   26  -0.147   0.286  -0.235
    1UNL    C22   27  -0.112   0.151  -0.250
    1UNL     O6   28  -0.118   0.094  -0.374
    1UNL    C23   29  -0.056   0.081  -0.144
    1UNL     H1   30   0.348   0.199   0.103
    1UNL     H2   31   0.237   0.228  -0.026
    1UNL     H3   32   0.204   0.302   0.135
    1UNL     H4   33   0.128   0.105   0.335
    1UNL     H5   34   0.170  -0.057   0.307
    1UNL     H6   35   0.293   0.069   0.299
    1UNL     H7   36   0.442   0.031   0.088
    1UNL     H8   37   0.562  -0.171   0.018
    1UNL     H9   38   0.533  -0.362  -0.095
    1UNL    H10   39   0.182  -0.344  -0.081
    1UNL    H11   40  -0.004  -0.116   0.201
    1UNL    H12   41  -0.219   0.014   0.264
    1UNL    H13   42  -0.467  -0.038   0.261
    1UNL    H14   43  -0.636  -0.217   0.027
    1UNL    H15   44  -0.432  -0.242  -0.095
    1UNL    H16   45  -0.079  -0.258  -0.097
    1UNL    H17   46  -0.042   0.122   0.175
    1UNL    H18   47  -0.046   0.334   0.088
    1UNL    H19   48  -0.126   0.543  -0.183
    1UNL    H20   49  -0.165   0.346  -0.326
    1UNL    H21   50  -0.112  -0.007  -0.369
    1UNL    H22   51  -0.033  -0.021  -0.163
   0.00000   0.00000   0.00000   0.00000   0.00000   0.00000   0.00000   0.00000   0.00000
Generated with MDTraj, t= 32.0
 51
    1UNL     C1    1   0.213   0.207   0.083
    1UNL     C2    2   0.161   0.070   0.126
    1UNL     C3    3   0.173   0.062   0.281
    1UNL     C4    4   0.244  -0.043   0.064
    1UNL     C5    5   0.382  -0.049   0.078
    1UNL     C6    6   0.452  -0.149   0.020
    1UNL     C7    7   0.391  -0.252  -0.051
    1UNL     O1    8   0.468  -0.356  -0.105
    1UNL     C8    9   0.253  -0.250  -0.060
    1UNL     C9   10   0.176  -0.150  -0.006
    1UNL     O2   11   0.037  -0.154  -0.009
    1UNL    C10   12  -0.039  -0.092   0.095
    1UNL    C11   13  -0.190  -0.113   0.087
    1UNL    C12   14  -0.269  -0.047   0.180
    1UNL    C13   15  -0.402  -0.067   0.186
    1UNL    C14   16  -0.472  -0.139   0.088
    1UNL     O3   17  -0.609  -0.133   0.095
    1UNL    C15   18  -0.397  -0.214  -0.006
    1UNL    C16   19  -0.257  -0.198  -0.010
    1UNL     O4   20  -0.192  -0.272  -0.111
    1UNL    C17   21   0.007   0.062   0.093
    1UNL    C18   22  -0.033   0.146  -0.030
    1UNL    C19   23  -0.034   0.284  -0.019
    1UNL    C20   24  -0.072   0.363  -0.127
    1UNL     O5   25  -0.067   0.504  -0.114
    1UNL    C21   26  -0.094   0.301  -0.249
    1UNL    C22   27  -0.097   0.163  -0.260
    1UNL     O6   28  -0.150   0.101  -0.375
    1UNL    C23   29  -0.063   0.086  -0.148
    1UNL     H1   30   0.322   0.222   0.071
    1UNL     H2   31   0.171   0.231  -0.015
    1UNL     H3   32   0.174   0.280   0.153
    1UNL     H4   33   0.132   0.145   0.335
    1UNL     H5   34   0.109  -0.020   0.319
    1UNL     H6   35   0.272   0.041   0.323
    1UNL     H7   36   0.437   0.024   0.143
    1UNL     H8   37   0.553  -0.145   0.035
    1UNL     H9   38   0.556  -0.318  -0.136
    1UNL    H10   39   0.200  -0.332  -0.099
    1UNL    H11   40   0.004  -0.137   0.192
    1UNL    H12   41  -0.217  -0.002   0.261
    1UNL    H13   42  -0.456  -0.022   0.265
    1UNL    H14   43  -0.655  -0.208   0.045
    1UNL    H15   44  -0.441  -0.285  -0.078
    1UNL    H16   45  -0.097  -0.255  -0.086
    1UNL    H17   46  -0.052   0.111   0.167
    1UNL    H18   47  -0.022   0.329   0.073
    1UNL    H19   48  -0.159   0.535  -0.134
    1UNL    H20   49  -0.120   0.365  -0.327
    1UNL    H21   50  -0.196   0.010  -0.354
    1UNL    H22   51  -0.083  -0.022  -0.143
   0.00000   0.00000   0.00000   0.00000   0.00000   0.00000   0.00000   0.00000   0.00000
Generated with MDTraj, t= 33.0
 51
    1UNL     C1    1   0.209   0.187   0.082
    1UNL     C2    2   0.152   0.063   0.147
    1UNL     C3    3   0.161   0.066   0.306
    1UNL     C4    4   0.229  -0.063   0.094
    1UNL     C5    5   0.371  -0.070   0.107
    1UNL     C6    6   0.447  -0.159   0.030
    1UNL     C7    7   0.387  -0.235  -0.075
    1UNL     O1    8   0.473  -0.321  -0.151
    1UNL     C8    9   0.249  -0.223  -0.086
    1UNL     C9   10   0.171  -0.146   0.002
    1UNL     O2   11   0.034  -0.148  -0.018
    1UNL    C10   12  -0.036  -0.087   0.094
    1UNL    C11   13  -0.187  -0.111   0.095
    1UNL    C12   14  -0.267  -0.042   0.191
    1UNL    C13   15  -0.403  -0.042   0.183
    1UNL    C14   16  -0.467  -0.130   0.091
    1UNL     O3   17  -0.607  -0.148   0.096
    1UNL    C15   18  -0.392  -0.201  -0.002
    1UNL    C16   19  -0.252  -0.192  -0.001
    1UNL     O4   20  -0.180  -0.274  -0.089
    1UNL    C17   21   0.000   0.061   0.097
    1UNL    C18   22  -0.045   0.137  -0.026
    1UNL    C19   23  -0.054   0.276  -0.023
    1UNL    C20   24  -0.065   0.352  -0.135
    1UNL     O5   25  -0.046   0.488  -0.131
    1UNL    C21   26  -0.097   0.292  -0.252
    1UNL    C22   27  -0.097   0.157  -0.262
    1UNL     O6   28  -0.135   0.100  -0.389
    1UNL    C23   29  -0.064   0.078  -0.148
    1UNL     H1   30   0.318   0.195   0.089
    1UNL     H2   31   0.185   0.187  -0.026
    1UNL     H3   32   0.176   0.281   0.124
    1UNL     H4   33   0.117   0.154   0.357
    1UNL     H5   34   0.106  -0.020   0.342
    1UNL     H6   35   0.263   0.053   0.330
    1UNL     H7   36   0.415  -0.010   0.179
    1UNL     H8   37   0.558  -0.171   0.028
    1UNL     H9   38   0.571  -0.293  -0.169
    1UNL    H10   39   0.203  -0.289  -0.159
    1UNL    H11   40   0.016  -0.126   0.187
    1UNL    H12   41  -0.214   0.027   0.259
    1UNL    H13   42  -0.468  -0.001   0.261
    1UNL    H14   43  -0.631  -0.234   0.046
    1UNL    H15   44  -0.441  -0.261  -0.075
    1UNL    H16   45  -0.091  -0.238  -0.090
    1UNL    H17   46  -0.058   0.112   0.168
    1UNL    H18   47  -0.019   0.320   0.075
    1UNL    H19   48  -0.110   0.534  -0.186
    1UNL    H20   49  -0.124   0.359  -0.335
    1UNL    H21   50  -0.168   0.005  -0.369
    1UNL    H22   51  -0.034  -0.022  -0.158
   0.00000   0.00000   0.00000   0.00000   0.00000   0.00000   0.00000   0.00000   0.00000
Generated with MDTraj, t= 34.0
 51
    1UNL     C1    1   0.223   0.193   0.106
    1UNL     C2    2   0.159   0.062   0.158
    1UNL     C3    3   0.182   0.060   0.313
    1UNL     C4    4   0.234  -0.052   0.084
    1UNL     C5    5   0.373  -0.069   0.097
    1UNL     C6    6   0.442  -0.150   0.015
    1UNL     C7    7   0.378  -0.234  -0.080
    1UNL     O1    8   0.450  -0.310  -0.166
    1UNL     C8    9   0.240  -0.219  -0.083
    1UNL     C9   10   0.166  -0.133  -0.008
    1UNL     O2   11   0.028  -0.136  -0.016
    1UNL    C10   12  -0.049  -0.081   0.098
    1UNL    C11   13  -0.195  -0.106   0.087
    1UNL    C12   14  -0.273  -0.040   0.180
    1UNL    C13   15  -0.409  -0.048   0.182
    1UNL    C14   16  -0.477  -0.138   0.095
    1UNL     O3   17  -0.616  -0.148   0.093
    1UNL    C15   18  -0.400  -0.207   0.004
    1UNL    C16   19  -0.266  -0.186  -0.016
    1UNL     O4   20  -0.197  -0.271  -0.100
    1UNL    C17   21   0.008   0.063   0.115
    1UNL    C18   22  -0.021   0.144  -0.015
    1UNL    C19   23  -0.028   0.284  -0.023
    1UNL    C20   24  -0.064   0.347  -0.141
    1UNL     O5   25  -0.075   0.490  -0.132
    1UNL    C21   26  -0.095   0.275  -0.257
    1UNL    C22   27  -0.079   0.137  -0.255
    1UNL     O6   28  -0.092   0.064  -0.373
    1UNL    C23   29  -0.045   0.077  -0.137
    1UNL     H1   30   0.322   0.210   0.149
    1UNL     H2   31   0.230   0.181  -0.003
    1UNL     H3   32   0.166   0.283   0.129
    1UNL     H4   33   0.104   0.129   0.354
    1UNL     H5   34   0.165  -0.035   0.354
    1UNL     H6   35   0.280   0.097   0.331
    1UNL     H7   36   0.423   0.013   0.155
    1UNL     H8   37   0.549  -0.143   0.025
    1UNL     H9   38   0.538  -0.268  -0.189
    1UNL    H10   39   0.190  -0.282  -0.154
    1UNL    H11   40  -0.015  -0.134   0.189
    1UNL    H12   41  -0.224   0.015   0.257
    1UNL    H13   42  -0.466   0.007   0.253
    1UNL    H14   43  -0.638  -0.229   0.037
    1UNL    H15   44  -0.453  -0.281  -0.052
    1UNL    H16   45  -0.103  -0.261  -0.076
    1UNL    H17   46  -0.053   0.113   0.180
    1UNL    H18   47  -0.005   0.341   0.062
    1UNL    H19   48  -0.157   0.525  -0.170
    1UNL    H20   49  -0.148   0.321  -0.339
    1UNL    H21   50  -0.115  -0.032  -0.352
    1UNL    H22   51  -0.012  -0.025  -0.152
   0.00000   0.00000   0.00000   0.00000   0.00000   0.00000   0.00000   0.00000   0.00000
Generated with MDTraj, t= 35.0
 51
    1UNL     C1    1   0.210   0.205   0.133
    1UNL     C2    2   0.160   0.059   0.150
    1UNL     C3    3   0.181   0.027   0.303
    1UNL     C4    4   0.232  -0.040   0.067
    1UNL     C5    5   0.367  -0.032   0.044
    1UNL     C6    6   0.438  -0.133  -0.015
    1UNL     C7    7   0.373  -0.237  -0.083
    1UNL     O1    8   0.445  -0.325  -0.164
    1UNL     C8    9   0.234  -0.246  -0.060
    1UNL     C9   10   0.168  -0.152   0.014
    1UNL     O2   11   0.033  -0.177   0.036
    1UNL    C10   12  -0.045  -0.078   0.118
    1UNL    C11   13  -0.198  -0.091   0.096
    1UNL    C12   14  -0.278  -0.020   0.185
    1UNL    C13   15  -0.414  -0.042   0.187
    1UNL    C14   16  -0.470  -0.124   0.090
    1UNL     O3   17  -0.603  -0.144   0.092
    1UNL    C15   18  -0.390  -0.190  -0.004
    1UNL    C16   19  -0.254  -0.174  -0.001
    1UNL     O4   20  -0.190  -0.248  -0.107
    1UNL    C17   21   0.006   0.063   0.109
    1UNL    C18   22  -0.030   0.131  -0.030
    1UNL    C19   23  -0.063   0.265  -0.021
    1UNL    C20   24  -0.090   0.339  -0.137
    1UNL     O5   25  -0.107   0.481  -0.114
    1UNL    C21   26  -0.073   0.281  -0.264
    1UNL    C22   27  -0.055   0.143  -0.272
    1UNL     O6   28  -0.059   0.078  -0.390
    1UNL    C23   29  -0.033   0.068  -0.156
    1UNL     H1   30   0.296   0.211   0.200
    1UNL     H2   31   0.244   0.217   0.031
    1UNL     H3   32   0.140   0.283   0.165
    1UNL     H4   33   0.127   0.086   0.373
    1UNL     H5   34   0.154  -0.074   0.326
    1UNL     H6   35   0.286   0.019   0.329
    1UNL     H7   36   0.414   0.062   0.071
    1UNL     H8   37   0.544  -0.126  -0.018
    1UNL     H9   38   0.530  -0.295  -0.200
    1UNL    H10   39   0.185  -0.328  -0.108
    1UNL    H11   40  -0.023  -0.109   0.220
    1UNL    H12   41  -0.229   0.031   0.268
    1UNL    H13   42  -0.464  -0.015   0.279
    1UNL    H14   43  -0.625  -0.217   0.029
    1UNL    H15   44  -0.439  -0.271  -0.056
    1UNL    H16   45  -0.094  -0.242  -0.091
    1UNL    H17   46  -0.044   0.123   0.175
    1UNL    H18   47  -0.074   0.314   0.074
    1UNL    H19   48  -0.170   0.513  -0.185
    1UNL    H20   49  -0.095   0.331  -0.357
    1UNL    H21   50  -0.080  -0.016  -0.374
    1UNL    H22   51  -0.020  -0.041  -0.169
   0.00000   0.00000   0.00000   0.00000   0.00000   0.00000   0.00000   0.00000   0.00000
Generated with MDTraj, t= 36.0
 51
    1UNL     C1    1   0.213   0.213   0.127
    1UNL     C2    2   0.163   0.069   0.148
    1UNL     C3    3   0.191   0.035   0.296
    1UNL     C4    4   0.231  -0.037   0.047
    1UNL     C5    5   0.357  -0.012  -0.018
    1UNL     C6    6   0.434  -0.112  -0.075
    1UNL     C7    7   0.374  -0.237  -0.092
    1UNL     O1    8   0.451  -0.342  -0.137
    1UNL     C8    9   0.238  -0.248  -0.054
    1UNL     C9   10   0.170  -0.158   0.022
    1UNL     O2   11   0.034  -0.186   0.046
    1UNL    C10   12  -0.041  -0.089   0.124
    1UNL    C11   13  -0.189  -0.100   0.100
    1UNL    C12   14  -0.277  -0.040   0.194
    1UNL    C13   15  -0.416  -0.054   0.199
    1UNL    C14   16  -0.482  -0.113   0.091
    1UNL     O3   17  -0.622  -0.114   0.071
    1UNL    C15   18  -0.404  -0.165  -0.017
    1UNL    C16   19  -0.262  -0.161  -0.010
    1UNL     O4   20  -0.200  -0.236  -0.110
    1UNL    C17   21   0.010   0.063   0.121
    1UNL    C18   22  -0.034   0.129  -0.009
    1UNL    C19   23  -0.093   0.253  -0.007
    1UNL    C20   24  -0.101   0.328  -0.129
    1UNL     O5   25  -0.137   0.461  -0.114
    1UNL    C21   26  -0.091   0.259  -0.247
    1UNL    C22   27  -0.029   0.135  -0.254
    1UNL     O6   28   0.001   0.068  -0.374
    1UNL    C23   29   0.001   0.073  -0.130
    1UNL     H1   30   0.313   0.226   0.167
    1UNL     H2   31   0.214   0.233   0.021
    1UNL     H3   32   0.149   0.284   0.182
    1UNL     H4   33   0.143   0.094   0.364
    1UNL     H5   34   0.157  -0.064   0.323
    1UNL     H6   35   0.297   0.020   0.321
    1UNL     H7   36   0.397   0.085  -0.023
    1UNL     H8   37   0.533  -0.091  -0.123
    1UNL     H9   38   0.532  -0.305  -0.169
    1UNL    H10   39   0.191  -0.347  -0.062
    1UNL    H11   40  -0.033  -0.119   0.226
    1UNL    H12   41  -0.230   0.011   0.277
    1UNL    H13   42  -0.474  -0.023   0.284
    1UNL    H14   43  -0.638  -0.164  -0.009
    1UNL    H15   44  -0.453  -0.205  -0.103
    1UNL    H16   45  -0.101  -0.239  -0.098
    1UNL    H17   46  -0.039   0.113   0.197
    1UNL    H18   47  -0.123   0.306   0.087
    1UNL    H19   48  -0.180   0.491  -0.200
    1UNL    H20   49  -0.090   0.326  -0.334
    1UNL    H21   50   0.023  -0.022  -0.355
    1UNL    H22   51   0.052  -0.018  -0.138
   0.00000   0.00000   0.00000   0.00000   0.00000   0.00000   0.00000   0.00000   0.00000
Generated with MDTraj, t= 37.0
 51
    1UNL     C1    1   0.196   0.219   0.112
    1UNL     C2    2   0.157   0.064   0.137
    1UNL     C3    3   0.197   0.038   0.283
    1UNL     C4    4   0.225  -0.029   0.039
    1UNL     C5    5   0.355  -0.018  -0.001
    1UNL     C6    6   0.429  -0.120  -0.060
    1UNL     C7    7   0.366  -0.236  -0.092
    1UNL     O1    8   0.424  -0.337  -0.167
    1UNL     C8    9   0.239  -0.256  -0.052
    1UNL     C9   10   0.165  -0.158   0.016
    1UNL     O2   11   0.045  -0.198   0.070
    1UNL    C10   12  -0.037  -0.102   0.140
    1UNL    C11   13  -0.190  -0.111   0.124
    1UNL    C12   14  -0.273  -0.061   0.220
    1UNL    C13   15  -0.409  -0.044   0.202
    1UNL    C14   16  -0.468  -0.093   0.081
    1UNL     O3   17  -0.596  -0.078   0.044
    1UNL    C15   18  -0.385  -0.139  -0.018
    1UNL    C16   19  -0.248  -0.146   0.001
    1UNL     O4   20  -0.177  -0.195  -0.109
    1UNL    C17   21  -0.001   0.047   0.123
    1UNL    C18   22  -0.045   0.110  -0.006
    1UNL    C19   23  -0.098   0.237  -0.009
    1UNL    C20   24  -0.126   0.308  -0.127
    1UNL     O5   25  -0.197   0.424  -0.130
    1UNL    C21   26  -0.068   0.260  -0.243
    1UNL    C22   27  -0.016   0.132  -0.247
    1UNL     O6   28   0.036   0.087  -0.371
    1UNL    C23   29  -0.007   0.057  -0.126
    1UNL     H1   30   0.300   0.249   0.115
    1UNL     H2   31   0.166   0.245   0.012
    1UNL     H3   32   0.143   0.283   0.181
    1UNL     H4   33   0.127   0.075   0.355
    1UNL     H5   34   0.202  -0.069   0.301
    1UNL     H6   35   0.301   0.060   0.297
    1UNL     H7   36   0.410   0.080   0.009
    1UNL     H8   37   0.520  -0.104  -0.105
    1UNL     H9   38   0.503  -0.303  -0.207
    1UNL    H10   39   0.191  -0.345  -0.072
    1UNL    H11   40  -0.011  -0.120   0.241
    1UNL    H12   41  -0.230  -0.027   0.311
    1UNL    H13   42  -0.474   0.003   0.274
    1UNL    H14   43  -0.620  -0.117  -0.039
    1UNL    H15   44  -0.411  -0.156  -0.121
    1UNL    H16   45  -0.084  -0.206  -0.072
    1UNL    H17   46  -0.045   0.100   0.203
    1UNL    H18   47  -0.134   0.269   0.081
    1UNL    H19   48  -0.263   0.426  -0.207
    1UNL    H20   49  -0.079   0.319  -0.327
    1UNL    H21   50   0.055  -0.004  -0.364
    1UNL    H22   51   0.026  -0.046  -0.133
   0.00000   0.00000   0.00000   0.00000   0.00000   0.00000   0.00000   0.00000   0.00000
Generated with MDTraj, t= 38.0
 51
    1UNL     C1    1   0.234   0.200   0.099
    1UNL     C2    2   0.170   0.068   0.146
    1UNL     C3    3   0.197   0.059   0.300
    1UNL     C4    4   0.235  -0.054   0.074
    1UNL     C5    5   0.363  -0.035   0.034
    1UNL     C6    6   0.425  -0.117  -0.059
    1UNL     C7    7   0.353  -0.225  -0.102
    1UNL     O1    8   0.395  -0.318  -0.193
    1UNL     C8    9   0.231  -0.252  -0.048
    1UNL     C9   10   0.166  -0.166   0.040
    1UNL     O2   11   0.038  -0.200   0.079
    1UNL    C10   12  -0.041  -0.097   0.142
    1UNL    C11   13  -0.185  -0.098   0.114
    1UNL    C12   14  -0.272  -0.073   0.222
    1UNL    C13   15  -0.405  -0.055   0.200
    1UNL    C14   16  -0.456  -0.062   0.075
    1UNL     O3   17  -0.591  -0.046   0.038
    1UNL    C15   18  -0.373  -0.107  -0.026
    1UNL    C16   19  -0.236  -0.136  -0.010
    1UNL     O4   20  -0.168  -0.183  -0.113
    1UNL    C17   21   0.015   0.048   0.119
    1UNL    C18   22  -0.025   0.109  -0.010
    1UNL    C19   23  -0.128   0.202  -0.008
    1UNL    C20   24  -0.164   0.268  -0.123
    1UNL     O5   25  -0.238   0.390  -0.130
    1UNL    C21   26  -0.111   0.223  -0.246
    1UNL    C22   27  -0.006   0.132  -0.252
    1UNL     O6   28   0.042   0.100  -0.376
    1UNL    C23   29   0.032   0.070  -0.135
    1UNL     H1   30   0.333   0.213   0.142
    1UNL     H2   31   0.253   0.204  -0.008
    1UNL     H3   32   0.179   0.285   0.134
    1UNL     H4   33   0.152   0.148   0.345
    1UNL     H5   34   0.144  -0.024   0.338
    1UNL     H6   35   0.299   0.041   0.314
    1UNL     H7   36   0.413   0.054   0.050
    1UNL     H8   37   0.531  -0.097  -0.093
    1UNL     H9   38   0.460  -0.276  -0.254
    1UNL    H10   39   0.167  -0.339  -0.078
    1UNL    H11   40  -0.032  -0.124   0.243
    1UNL    H12   41  -0.241  -0.081   0.327
    1UNL    H13   42  -0.473  -0.038   0.282
    1UNL    H14   43  -0.603  -0.051  -0.057
    1UNL    H15   44  -0.414  -0.121  -0.125
    1UNL    H16   45  -0.076  -0.196  -0.077
    1UNL    H17   46  -0.039   0.103   0.194
    1UNL    H18   47  -0.168   0.235   0.092
    1UNL    H19   48  -0.276   0.393  -0.219
    1UNL    H20   49  -0.150   0.267  -0.341
    1UNL    H21   50   0.117   0.040  -0.370
    1UNL    H22   51   0.123   0.012  -0.141
   0.00000   0.00000   0.00000   0.00000   0.00000   0.00000   0.00000   0.00000   0.00000
Generated with MDTraj, t= 39.0
 51
    1UNL     C1    1   0.247   0.200   0.113
    1UNL     C2    2   0.180   0.062   0.146
    1UNL     C3    3   0.205   0.026   0.294
    1UNL     C4    4   0.243  -0.054   0.068
    1UNL     C5    5   0.378  -0.048   0.044
    1UNL     C6    6   0.438  -0.137  -0.044
    1UNL     C7    7   0.353  -0.226  -0.109
    1UNL     O1    8   0.405  -0.325  -0.196
    1UNL     C8    9   0.217  -0.239  -0.075
    1UNL     C9   10   0.158  -0.157   0.024
    1UNL     O2   11   0.033  -0.192   0.061
    1UNL    C10   12  -0.031  -0.089   0.145
    1UNL    C11   13  -0.182  -0.080   0.115
    1UNL    C12   14  -0.265  -0.037   0.216
    1UNL    C13   15  -0.408  -0.026   0.193
    1UNL    C14   16  -0.458  -0.054   0.067
    1UNL     O3   17  -0.592  -0.045   0.036
    1UNL    C15   18  -0.372  -0.092  -0.033
    1UNL    C16   19  -0.235  -0.110  -0.014
    1UNL     O4   20  -0.159  -0.142  -0.121
    1UNL    C17   21   0.027   0.058   0.129
    1UNL    C18   22  -0.021   0.122   0.004
    1UNL    C19   23  -0.140   0.195  -0.001
    1UNL    C20   24  -0.182   0.243  -0.124
    1UNL     O5   25  -0.309   0.312  -0.136
    1UNL    C21   26  -0.112   0.213  -0.241
    1UNL    C22   27  -0.006   0.123  -0.238
    1UNL     O6   28   0.047   0.085  -0.357
    1UNL    C23   29   0.047   0.089  -0.117
    1UNL     H1   30   0.354   0.192   0.129
    1UNL     H2   31   0.241   0.218   0.006
    1UNL     H3   32   0.211   0.282   0.171
    1UNL     H4   33   0.135   0.089   0.353
    1UNL     H5   34   0.182  -0.075   0.311
    1UNL     H6   35   0.306   0.039   0.307
    1UNL     H7   36   0.440   0.028   0.098
    1UNL     H8   37   0.542  -0.125  -0.062
    1UNL     H9   38   0.485  -0.287  -0.247
    1UNL    H10   39   0.163  -0.322  -0.112
    1UNL    H11   40  -0.010  -0.127   0.240
    1UNL    H12   41  -0.218  -0.029   0.310
    1UNL    H13   42  -0.479   0.015   0.263
    1UNL    H14   43  -0.605  -0.043  -0.062
    1UNL    H15   44  -0.407  -0.091  -0.135
    1UNL    H16   45  -0.065  -0.151  -0.095
    1UNL    H17   46  -0.016   0.117   0.212
    1UNL    H18   47  -0.200   0.197   0.085
    1UNL    H19   48  -0.360   0.289  -0.214
    1UNL    H20   49  -0.152   0.233  -0.336
    1UNL    H21   50   0.127   0.029  -0.336
    1UNL    H22   51   0.131   0.026  -0.119
   0.00000   0.00000   0.00000   0.00000   0.00000   0.00000   0.00000   0.00000   0.00000
Generated with MDTraj, t= 40.0
 51
    1UNL     C1    1   0.250   0.201   0.149
    1UNL     C2    2   0.185   0.058   0.154
    1UNL     C3    3   0.194   0.003   0.296
    1UNL     C4    4   0.258  -0.040   0.064
    1UNL     C5    5   0.391  -0.037   0.037
    1UNL     C6    6   0.436  -0.136  -0.053
    1UNL     C7    7   0.362  -0.246  -0.099
    1UNL     O1    8   0.409  -0.349  -0.180
    1UNL     C8    9   0.230  -0.246  -0.064
    1UNL     C9   10   0.174  -0.147   0.013
    1UNL     O2   11   0.038  -0.173   0.036
    1UNL    C10   12  -0.028  -0.082   0.130
    1UNL    C11   13  -0.184  -0.071   0.100
    1UNL    C12   14  -0.264  -0.024   0.203
    1UNL    C13   15  -0.399  -0.016   0.193
    1UNL    C14   16  -0.464  -0.053   0.073
    1UNL     O3   17  -0.600  -0.029   0.050
    1UNL    C15   18  -0.385  -0.083  -0.037
    1UNL    C16   19  -0.251  -0.097  -0.023
    1UNL     O4   20  -0.177  -0.133  -0.133
    1UNL    C17   21   0.036   0.063   0.127
    1UNL    C18   22  -0.006   0.131  -0.002
    1UNL    C19   23  -0.126   0.201  -0.004
    1UNL    C20   24  -0.201   0.216  -0.122
    1UNL     O5   25  -0.332   0.254  -0.123
    1UNL    C21   26  -0.136   0.179  -0.236
    1UNL    C22   27  -0.005   0.131  -0.237
    1UNL     O6   28   0.060   0.108  -0.360
    1UNL    C23   29   0.059   0.100  -0.116
    1UNL     H1   30   0.358   0.197   0.157
    1UNL     H2   31   0.228   0.241   0.051
    1UNL     H3   32   0.206   0.263   0.224
    1UNL     H4   33   0.137   0.067   0.364
    1UNL     H5   34   0.150  -0.092   0.295
    1UNL     H6   35   0.295  -0.012   0.323
    1UNL     H7   36   0.454   0.034   0.086
    1UNL     H8   37   0.537  -0.129  -0.095
    1UNL     H9   38   0.469  -0.323  -0.259
    1UNL    H10   39   0.174  -0.337  -0.082
    1UNL    H11   40  -0.023  -0.131   0.221
    1UNL    H12   41  -0.233   0.014   0.302
    1UNL    H13   42  -0.454   0.023   0.278
    1UNL    H14   43  -0.614  -0.017  -0.049
    1UNL    H15   44  -0.423  -0.079  -0.138
    1UNL    H16   45  -0.094  -0.165  -0.097
    1UNL    H17   46  -0.005   0.126   0.213
    1UNL    H18   47  -0.169   0.230   0.090
    1UNL    H19   48  -0.380   0.215  -0.199
    1UNL    H20   49  -0.181   0.195  -0.332
    1UNL    H21   50   0.160   0.106  -0.336
    1UNL    H22   51   0.149   0.037  -0.116
   0.00000   0.00000   0.00000   0.00000   0.00000   0.00000   0.00000   0.00000   0.00000
Generated with MDTraj, t= 41.0
 51
    1UNL     C1    1   0.239   0.192   0.134
    1UNL     C2    2   0.183   0.049   0.152
    1UNL     C3    3   0.194   0.008   0.298
    1UNL     C4    4   0.247  -0.060   0.065
    1UNL     C5    5   0.387  -0.046   0.038
    1UNL     C6    6   0.445  -0.131  -0.053
    1UNL     C7    7   0.373  -0.243  -0.101
    1UNL     O1    8   0.434  -0.354  -0.157
    1UNL     C8    9   0.236  -0.248  -0.071
    1UNL     C9   10   0.169  -0.159   0.009
    1UNL     O2   11   0.031  -0.182   0.039
    1UNL    C10   12  -0.034  -0.088   0.122
    1UNL    C11   13  -0.182  -0.083   0.114
    1UNL    C12   14  -0.261  -0.033   0.218
    1UNL    C13   15  -0.400  -0.019   0.209
    1UNL    C14   16  -0.458  -0.032   0.083
    1UNL     O3   17  -0.597  -0.018   0.062
    1UNL    C15   18  -0.378  -0.071  -0.019
    1UNL    C16   19  -0.245  -0.102  -0.007
    1UNL     O4   20  -0.175  -0.140  -0.124
    1UNL    C17   21   0.027   0.048   0.117
    1UNL    C18   22  -0.018   0.120  -0.007
    1UNL    C19   23  -0.148   0.167  -0.015
    1UNL    C20   24  -0.206   0.213  -0.135
    1UNL     O5   25  -0.336   0.257  -0.142
    1UNL    C21   26  -0.133   0.203  -0.250
    1UNL    C22   27  -0.000   0.159  -0.250
    1UNL     O6   28   0.065   0.139  -0.374
    1UNL    C23   29   0.054   0.120  -0.122
    1UNL     H1   30   0.338   0.203   0.175
    1UNL     H2   31   0.248   0.224   0.033
    1UNL     H3   32   0.168   0.256   0.183
    1UNL     H4   33   0.150   0.077   0.363
    1UNL     H5   34   0.159  -0.090   0.317
    1UNL     H6   35   0.297  -0.006   0.332
    1UNL     H7   36   0.439   0.035   0.077
    1UNL     H8   37   0.552  -0.131  -0.061
    1UNL     H9   38   0.510  -0.330  -0.216
    1UNL    H10   39   0.182  -0.336  -0.106
    1UNL    H11   40  -0.018  -0.133   0.215
    1UNL    H12   41  -0.212  -0.034   0.310
    1UNL    H13   42  -0.459  -0.008   0.298
    1UNL    H14   43  -0.627   0.021  -0.028
    1UNL    H15   44  -0.418  -0.077  -0.119
    1UNL    H16   45  -0.088  -0.179  -0.105
    1UNL    H17   46  -0.016   0.112   0.205
    1UNL    H18   47  -0.221   0.177   0.067
    1UNL    H19   48  -0.348   0.274  -0.240
    1UNL    H20   49  -0.181   0.255  -0.333
    1UNL    H21   50   0.167   0.124  -0.369
    1UNL    H22   51   0.154   0.085  -0.123
   0.00000   0.00000   0.00000   0.00000   0.00000   0.00000   0.00000   0.00000   0.00000
Generated with MDTraj, t= 42.0
 51
    1UNL     C1    1   0.204   0.198   0.081
    1UNL     C2    2   0.168   0.057   0.136
    1UNL     C3    3   0.204   0.056   0.283
    1UNL     C4    4   0.236  -0.055   0.069
    1UNL     C5    5   0.375  -0.050   0.047
    1UNL     C6    6   0.440  -0.139  -0.026
    1UNL     C7    7   0.371  -0.248  -0.082
    1UNL     O1    8   0.434  -0.347  -0.163
    1UNL     C8    9   0.235  -0.262  -0.055
    1UNL     C9   10   0.168  -0.168   0.015
    1UNL     O2   11   0.031  -0.190   0.030
    1UNL    C10   12  -0.037  -0.099   0.121
    1UNL    C11   13  -0.183  -0.102   0.111
    1UNL    C12   14  -0.254  -0.079   0.227
    1UNL    C13   15  -0.387  -0.052   0.222
    1UNL    C14   16  -0.455  -0.052   0.100
    1UNL     O3   17  -0.579   0.002   0.091
    1UNL    C15   18  -0.386  -0.092  -0.016
    1UNL    C16   19  -0.250  -0.120  -0.009
    1UNL     O4   20  -0.196  -0.161  -0.124
    1UNL    C17   21   0.005   0.045   0.114
    1UNL    C18   22  -0.036   0.102  -0.022
    1UNL    C19   23  -0.152   0.179  -0.025
    1UNL    C20   24  -0.196   0.240  -0.145
    1UNL     O5   25  -0.321   0.302  -0.149
    1UNL    C21   26  -0.105   0.239  -0.254
    1UNL    C22   27   0.011   0.162  -0.251
    1UNL     O6   28   0.099   0.170  -0.357
    1UNL    C23   29   0.048   0.095  -0.135
    1UNL     H1   30   0.305   0.226   0.101
    1UNL     H2   31   0.197   0.204  -0.025
    1UNL     H3   32   0.136   0.274   0.118
    1UNL     H4   33   0.145   0.113   0.342
    1UNL     H5   34   0.218  -0.044   0.321
    1UNL     H6   35   0.308   0.087   0.300
    1UNL     H7   36   0.430   0.039   0.089
    1UNL     H8   37   0.546  -0.128  -0.035
    1UNL     H9   38   0.507  -0.310  -0.211
    1UNL    H10   39   0.185  -0.343  -0.097
    1UNL    H11   40  -0.013  -0.147   0.212
    1UNL    H12   41  -0.202  -0.086   0.325
    1UNL    H13   42  -0.450  -0.042   0.308
    1UNL    H14   43  -0.568   0.063   0.011
    1UNL    H15   44  -0.437  -0.105  -0.109
    1UNL    H16   45  -0.106  -0.197  -0.100
    1UNL    H17   46  -0.048   0.110   0.198
    1UNL    H18   47  -0.215   0.173   0.058
    1UNL    H19   48  -0.337   0.336  -0.243
    1UNL    H20   49  -0.127   0.281  -0.346
    1UNL    H21   50   0.192   0.140  -0.327
    1UNL    H22   51   0.138   0.036  -0.133
   0.00000   0.00000   0.00000   0.00000   0.00000   0.00000   0.00000   0.00000   0.00000
Generated with MDTraj, t= 43.0
 51
    1UNL     C1    1   0.200   0.190   0.078
    1UNL     C2    2   0.152   0.059   0.136
    1UNL     C3    3   0.177   0.048   0.293
    1UNL     C4    4   0.235  -0.059   0.065
    1UNL     C5    5   0.375  -0.046   0.051
    1UNL     C6    6   0.450  -0.138  -0.015
    1UNL     C7    7   0.384  -0.252  -0.075
    1UNL     O1    8   0.454  -0.348  -0.142
    1UNL     C8    9   0.247  -0.258  -0.066
    1UNL     C9   10   0.174  -0.172   0.006
    1UNL     O2   11   0.031  -0.191   0.019
    1UNL    C10   12  -0.032  -0.105   0.118
    1UNL    C11   13  -0.188  -0.115   0.116
    1UNL    C12   14  -0.259  -0.077   0.230
    1UNL    C13   15  -0.392  -0.065   0.243
    1UNL    C14   16  -0.467  -0.074   0.123
    1UNL     O3   17  -0.598  -0.036   0.115
    1UNL    C15   18  -0.402  -0.102   0.003
    1UNL    C16   19  -0.263  -0.121  -0.005
    1UNL     O4   20  -0.201  -0.164  -0.122
    1UNL    C17   21   0.003   0.049   0.102
    1UNL    C18   22  -0.033   0.110  -0.033
    1UNL    C19   23  -0.145   0.191  -0.040
    1UNL    C20   24  -0.174   0.267  -0.153
    1UNL     O5   25  -0.278   0.364  -0.142
    1UNL    C21   26  -0.096   0.255  -0.272
    1UNL    C22   27   0.014   0.170  -0.270
    1UNL     O6   28   0.095   0.160  -0.380
    1UNL    C23   29   0.030   0.085  -0.160
    1UNL     H1   30   0.298   0.203   0.119
    1UNL     H2   31   0.198   0.182  -0.030
    1UNL     H3   32   0.139   0.275   0.105
    1UNL     H4   33   0.175   0.145   0.335
    1UNL     H5   34   0.110  -0.021   0.340
    1UNL     H6   35   0.270  -0.001   0.312
    1UNL     H7   36   0.420   0.031   0.105
    1UNL     H8   37   0.555  -0.123  -0.048
    1UNL     H9   38   0.540  -0.314  -0.162
    1UNL    H10   39   0.198  -0.348  -0.111
    1UNL    H11   40  -0.000  -0.147   0.212
    1UNL    H12   41  -0.197  -0.068   0.314
    1UNL    H13   42  -0.434  -0.034   0.339
    1UNL    H14   43  -0.622   0.001   0.029
    1UNL    H15   44  -0.464  -0.086  -0.084
    1UNL    H16   45  -0.108  -0.195  -0.100
    1UNL    H17   46  -0.057   0.108   0.187
    1UNL    H18   47  -0.189   0.218   0.058
    1UNL    H19   48  -0.303   0.410  -0.228
    1UNL    H20   49  -0.114   0.315  -0.365
    1UNL    H21   50   0.166   0.099  -0.354
    1UNL    H22   51   0.116   0.021  -0.157
   0.00000   0.00000   0.00000   0.00000   0.00000   0.00000   0.00000   0.00000   0.00000
Generated with MDTraj, t= 44.0
 51
    1UNL     C1    1   0.219   0.198   0.108
    1UNL     C2    2   0.159   0.059   0.145
    1UNL     C3    3   0.173   0.038   0.301
    1UNL     C4    4   0.240  -0.048   0.066
    1UNL     C5    5   0.385  -0.051   0.056
    1UNL     C6    6   0.453  -0.153  -0.003
    1UNL     C7    7   0.383  -0.255  -0.065
    1UNL     O1    8   0.445  -0.362  -0.121
    1UNL     C8    9   0.242  -0.250  -0.066
    1UNL     C9   10   0.169  -0.149  -0.001
    1UNL     O2   11   0.032  -0.152  -0.019
    1UNL    C10   12  -0.037  -0.092   0.094
    1UNL    C11   13  -0.190  -0.099   0.100
    1UNL    C12   14  -0.255  -0.062   0.219
    1UNL    C13   15  -0.393  -0.072   0.235
    1UNL    C14   16  -0.474  -0.105   0.128
    1UNL     O3   17  -0.607  -0.117   0.152
    1UNL    C15   18  -0.411  -0.125   0.004
    1UNL    C16   19  -0.276  -0.128  -0.005
    1UNL     O4   20  -0.223  -0.149  -0.133
    1UNL    C17   21   0.001   0.059   0.098
    1UNL    C18   22  -0.027   0.127  -0.033
    1UNL    C19   23  -0.115   0.236  -0.040
    1UNL    C20   24  -0.144   0.305  -0.153
    1UNL     O5   25  -0.241   0.403  -0.148
    1UNL    C21   26  -0.084   0.267  -0.273
    1UNL    C22   27  -0.000   0.153  -0.276
    1UNL     O6   28   0.056   0.099  -0.395
    1UNL    C23   29   0.031   0.095  -0.154
    1UNL     H1   30   0.315   0.217   0.155
    1UNL     H2   31   0.220   0.205  -0.000
    1UNL     H3   32   0.160   0.282   0.139
    1UNL     H4   33   0.086   0.089   0.346
    1UNL     H5   34   0.180  -0.067   0.309
    1UNL     H6   35   0.264   0.068   0.340
    1UNL     H7   36   0.438   0.038   0.092
    1UNL     H8   37   0.556  -0.161  -0.001
    1UNL     H9   38   0.538  -0.344  -0.143
    1UNL    H10   39   0.198  -0.322  -0.129
    1UNL    H11   40  -0.007  -0.139   0.190
    1UNL    H12   41  -0.192  -0.038   0.305
    1UNL    H13   42  -0.436  -0.082   0.332
    1UNL    H14   43  -0.655  -0.128   0.071
    1UNL    H15   44  -0.467  -0.150  -0.084
    1UNL    H16   45  -0.128  -0.150  -0.117
    1UNL    H17   46  -0.054   0.117   0.185
    1UNL    H18   47  -0.168   0.264   0.047
    1UNL    H19   48  -0.277   0.424  -0.236
    1UNL    H20   49  -0.132   0.298  -0.360
    1UNL    H21   50   0.102   0.019  -0.377
    1UNL    H22   51   0.094   0.008  -0.163
   0.00000   0.00000   0.00000   0.00000   0.00000   0.00000   0.00000   0.00000   0.00000
Generated with MDTraj, t= 45.0
 51
    1UNL     C1    1   0.233   0.204   0.109
    1UNL     C2    2   0.162   0.071   0.142
    1UNL     C3    3   0.181   0.049   0.295
    1UNL     C4    4   0.236  -0.043   0.063
    1UNL     C5    5   0.370  -0.066   0.079
    1UNL     C6    6   0.430  -0.174   0.025
    1UNL     C7    7   0.359  -0.261  -0.053
    1UNL     O1    8   0.422  -0.361  -0.122
    1UNL     C8    9   0.221  -0.246  -0.066
    1UNL     C9   10   0.158  -0.139  -0.005
    1UNL     O2   11   0.023  -0.136  -0.015
    1UNL    C10   12  -0.041  -0.072   0.096
    1UNL    C11   13  -0.190  -0.097   0.102
    1UNL    C12   14  -0.258  -0.075   0.220
    1UNL    C13   15  -0.392  -0.095   0.231
    1UNL    C14   16  -0.462  -0.143   0.126
    1UNL     O3   17  -0.599  -0.179   0.154
    1UNL    C15   18  -0.394  -0.157   0.006
    1UNL    C16   19  -0.261  -0.131  -0.011
    1UNL     O4   20  -0.211  -0.139  -0.136
    1UNL    C17   21   0.011   0.071   0.095
    1UNL    C18   22  -0.008   0.149  -0.040
    1UNL    C19   23  -0.081   0.269  -0.045
    1UNL    C20   24  -0.128   0.334  -0.164
    1UNL     O5   25  -0.189   0.456  -0.159
    1UNL    C21   26  -0.104   0.263  -0.280
    1UNL    C22   27  -0.025   0.144  -0.280
    1UNL     O6   28   0.015   0.081  -0.395
    1UNL    C23   29   0.025   0.089  -0.156
    1UNL     H1   30   0.336   0.209   0.146
    1UNL     H2   31   0.220   0.228   0.004
    1UNL     H3   32   0.191   0.290   0.157
    1UNL     H4   33   0.158   0.145   0.345
    1UNL     H5   34   0.136  -0.039   0.331
    1UNL     H6   35   0.279   0.021   0.309
    1UNL     H7   36   0.425   0.012   0.131
    1UNL     H8   37   0.536  -0.200   0.052
    1UNL     H9   38   0.514  -0.335  -0.153
    1UNL    H10   39   0.161  -0.304  -0.135
    1UNL    H11   40  -0.007  -0.121   0.192
    1UNL    H12   41  -0.199  -0.050   0.306
    1UNL    H13   42  -0.448  -0.086   0.324
    1UNL    H14   43  -0.639  -0.203   0.071
    1UNL    H15   44  -0.461  -0.188  -0.072
    1UNL    H16   45  -0.115  -0.133  -0.130
    1UNL    H17   46  -0.050   0.119   0.179
    1UNL    H18   47  -0.102   0.325   0.044
    1UNL    H19   48  -0.245   0.461  -0.237
    1UNL    H20   49  -0.128   0.312  -0.374
    1UNL    H21   50   0.068   0.008  -0.370
    1UNL    H22   51   0.079  -0.003  -0.157
   0.00000   0.00000   0.00000   0.00000   0.00000   0.00000   0.00000   0.00000   0.00000
Generated with MDTraj, t= 46.0
 51
    1UNL     C1    1   0.243   0.194   0.061
    1UNL     C2    2   0.164   0.081   0.126
    1UNL     C3    3   0.174   0.097   0.282
    1UNL     C4    4   0.227  -0.053   0.078
    1UNL     C5    5   0.360  -0.061   0.082
    1UNL     C6    6   0.429  -0.167   0.024
    1UNL     C7    7   0.357  -0.262  -0.049
    1UNL     O1    8   0.427  -0.368  -0.109
    1UNL     C8    9   0.221  -0.249  -0.063
    1UNL     C9   10   0.151  -0.153   0.012
    1UNL     O2   11   0.016  -0.164   0.009
    1UNL    C10   12  -0.041  -0.071   0.105
    1UNL    C11   13  -0.198  -0.092   0.102
    1UNL    C12   14  -0.264  -0.085   0.221
    1UNL    C13   15  -0.397  -0.110   0.235
    1UNL    C14   16  -0.466  -0.164   0.124
    1UNL     O3   17  -0.588  -0.219   0.153
    1UNL    C15   18  -0.406  -0.165  -0.001
    1UNL    C16   19  -0.271  -0.132  -0.016
    1UNL     O4   20  -0.197  -0.149  -0.131
    1UNL    C17   21   0.008   0.076   0.091
    1UNL    C18   22  -0.024   0.149  -0.043
    1UNL    C19   23  -0.073   0.280  -0.033
    1UNL    C20   24  -0.098   0.350  -0.157
    1UNL     O5   25  -0.141   0.481  -0.146
    1UNL    C21   26  -0.072   0.291  -0.278
    1UNL    C22   27  -0.028   0.161  -0.288
    1UNL     O6   28  -0.027   0.087  -0.406
    1UNL    C23   29   0.004   0.093  -0.168
    1UNL     H1   30   0.339   0.195   0.112
    1UNL     H2   31   0.246   0.180  -0.045
    1UNL     H3   32   0.211   0.295   0.078
    1UNL     H4   33   0.134   0.193   0.312
    1UNL     H5   34   0.140   0.015   0.340
    1UNL     H6   35   0.275   0.095   0.317
    1UNL     H7   36   0.411   0.001   0.148
    1UNL     H8   37   0.534  -0.164   0.013
    1UNL     H9   38   0.510  -0.325  -0.152
    1UNL    H10   39   0.166  -0.325  -0.118
    1UNL    H11   40   0.000  -0.114   0.204
    1UNL    H12   41  -0.201  -0.063   0.306
    1UNL    H13   42  -0.437  -0.087   0.331
    1UNL    H14   43  -0.621  -0.248   0.066
    1UNL    H15   44  -0.460  -0.188  -0.089
    1UNL    H16   45  -0.105  -0.151  -0.099
    1UNL    H17   46  -0.046   0.132   0.169
    1UNL    H18   47  -0.099   0.336   0.058
    1UNL    H19   48  -0.189   0.509  -0.224
    1UNL    H20   49  -0.070   0.348  -0.370
    1UNL    H21   50  -0.002  -0.005  -0.391
    1UNL    H22   51   0.032  -0.012  -0.180
   0.00000   0.00000   0.00000   0.00000   0.00000   0.00000   0.00000   0.00000   0.00000
Generated with MDTraj, t= 47.0
 51
    1UNL     C1    1   0.227   0.207   0.034
    1UNL     C2    2   0.160   0.089   0.107
    1UNL     C3    3   0.190   0.113   0.256
    1UNL     C4    4   0.231  -0.043   0.061
    1UNL     C5    5   0.368  -0.054   0.070
    1UNL     C6    6   0.440  -0.159   0.023
    1UNL     C7    7   0.373  -0.262  -0.033
    1UNL     O1    8   0.443  -0.379  -0.079
    1UNL     C8    9   0.235  -0.263  -0.043
    1UNL     C9   10   0.162  -0.151   0.001
    1UNL     O2   11   0.024  -0.159  -0.008
    1UNL    C10   12  -0.042  -0.077   0.090
    1UNL    C11   13  -0.193  -0.105   0.099
    1UNL    C12   14  -0.264  -0.097   0.219
    1UNL    C13   15  -0.402  -0.117   0.233
    1UNL    C14   16  -0.476  -0.167   0.125
    1UNL     O3   17  -0.608  -0.197   0.151
    1UNL    C15   18  -0.412  -0.184   0.004
    1UNL    C16   19  -0.270  -0.156  -0.006
    1UNL     O4   20  -0.210  -0.167  -0.133
    1UNL    C17   21  -0.001   0.070   0.082
    1UNL    C18   22  -0.061   0.142  -0.035
    1UNL    C19   23  -0.093   0.278  -0.027
    1UNL    C20   24  -0.084   0.356  -0.141
    1UNL     O5   25  -0.085   0.496  -0.128
    1UNL    C21   26  -0.072   0.292  -0.267
    1UNL    C22   27  -0.048   0.157  -0.277
    1UNL     O6   28  -0.020   0.109  -0.402
    1UNL    C23   29  -0.042   0.086  -0.161
    1UNL     H1   30   0.331   0.207   0.065
    1UNL     H2   31   0.203   0.196  -0.069
    1UNL     H3   32   0.193   0.305   0.062
    1UNL     H4   33   0.156   0.206   0.285
    1UNL     H5   34   0.138   0.043   0.315
    1UNL     H6   35   0.290   0.103   0.301
    1UNL     H7   36   0.434   0.019   0.129
    1UNL     H8   37   0.547  -0.167   0.043
    1UNL     H9   38   0.518  -0.357  -0.142
    1UNL    H10   39   0.178  -0.339  -0.088
    1UNL    H11   40  -0.007  -0.124   0.189
    1UNL    H12   41  -0.211  -0.064   0.308
    1UNL    H13   42  -0.448  -0.106   0.332
    1UNL    H14   43  -0.658  -0.225   0.069
    1UNL    H15   44  -0.470  -0.217  -0.084
    1UNL    H16   45  -0.113  -0.165  -0.113
    1UNL    H17   46  -0.046   0.121   0.163
    1UNL    H18   47  -0.126   0.328   0.060
    1UNL    H19   48  -0.096   0.546  -0.213
    1UNL    H20   49  -0.071   0.339  -0.360
    1UNL    H21   50   0.018   0.018  -0.397
    1UNL    H22   51   0.008  -0.009  -0.165
   0.00000   0.00000   0.00000   0.00000   0.00000   0.00000   0.00000   0.00000   0.00000
Generated with MDTraj, t= 48.0
 51
    1UNL     C1    1   0.220   0.216   0.042
    1UNL     C2    2   0.152   0.077   0.099
    1UNL     C3    3   0.170   0.095   0.255
    1UNL     C4    4   0.223  -0.039   0.049
    1UNL     C5    5   0.355  -0.047   0.075
    1UNL     C6    6   0.438  -0.151   0.022
    1UNL     C7    7   0.380  -0.268  -0.027
    1UNL     O1    8   0.448  -0.382  -0.049
    1UNL     C8    9   0.244  -0.262  -0.045
    1UNL     C9   10   0.167  -0.151  -0.012
    1UNL     O2   11   0.027  -0.151  -0.031
    1UNL    C10   12  -0.039  -0.097   0.079
    1UNL    C11   13  -0.188  -0.123   0.097
    1UNL    C12   14  -0.249  -0.090   0.214
    1UNL    C13   15  -0.385  -0.108   0.233
    1UNL    C14   16  -0.464  -0.143   0.129
    1UNL     O3   17  -0.604  -0.146   0.148
    1UNL    C15   18  -0.404  -0.183   0.010
    1UNL    C16   19  -0.265  -0.173  -0.007
    1UNL     O4   20  -0.211  -0.215  -0.127
    1UNL    C17   21  -0.004   0.057   0.079
    1UNL    C18   22  -0.045   0.137  -0.044
    1UNL    C19   23  -0.077   0.270  -0.030
    1UNL    C20   24  -0.085   0.358  -0.131
    1UNL     O5   25  -0.110   0.492  -0.116
    1UNL    C21   26  -0.060   0.306  -0.258
    1UNL    C22   27  -0.050   0.167  -0.278
    1UNL     O6   28  -0.045   0.124  -0.406
    1UNL    C23   29  -0.049   0.083  -0.171
    1UNL     H1   30   0.326   0.217   0.061
    1UNL     H2   31   0.187   0.237  -0.057
    1UNL     H3   32   0.186   0.305   0.095
    1UNL     H4   33   0.099   0.151   0.303
    1UNL     H5   34   0.182  -0.000   0.302
    1UNL     H6   35   0.265   0.142   0.283
    1UNL     H7   36   0.402   0.033   0.119
    1UNL     H8   37   0.539  -0.163   0.062
    1UNL     H9   38   0.540  -0.358  -0.042
    1UNL    H10   39   0.187  -0.347  -0.088
    1UNL    H11   40   0.010  -0.139   0.172
    1UNL    H12   41  -0.186  -0.067   0.296
    1UNL    H13   42  -0.433  -0.084   0.326
    1UNL    H14   43  -0.647  -0.174   0.060
    1UNL    H15   44  -0.456  -0.208  -0.080
    1UNL    H16   45  -0.112  -0.222  -0.135
    1UNL    H17   46  -0.048   0.100   0.161
    1UNL    H18   47  -0.079   0.307   0.074
    1UNL    H19   48  -0.165   0.532  -0.191
    1UNL    H20   49  -0.068   0.377  -0.345
    1UNL    H21   50  -0.008   0.028  -0.412
    1UNL    H22   51  -0.030  -0.022  -0.173
   0.00000   0.00000   0.00000   0.00000   0.00000   0.00000   0.00000   0.00000   0.00000
Generated with MDTraj, t= 49.0
 51
    1UNL     C1    1   0.225   0.201   0.072
    1UNL     C2    2   0.159   0.070   0.114
    1UNL     C3    3   0.156   0.068   0.267
    1UNL     C4    4   0.236  -0.057   0.065
    1UNL     C5    5   0.373  -0.065   0.087
    1UNL     C6    6   0.450  -0.163   0.034
    1UNL     C7    7   0.387  -0.270  -0.031
    1UNL     O1    8   0.470  -0.378  -0.070
    1UNL     C8    9   0.249  -0.265  -0.049
    1UNL     C9   10   0.172  -0.159  -0.006
    1UNL     O2   11   0.033  -0.164  -0.031
    1UNL    C10   12  -0.030  -0.095   0.072
    1UNL    C11   13  -0.186  -0.100   0.084
    1UNL    C12   14  -0.245  -0.049   0.197
    1UNL    C13   15  -0.382  -0.058   0.215
    1UNL    C14   16  -0.462  -0.127   0.124
    1UNL     O3   17  -0.596  -0.133   0.140
    1UNL    C15   18  -0.403  -0.173   0.005
    1UNL    C16   19  -0.264  -0.168  -0.009
    1UNL     O4   20  -0.205  -0.230  -0.117
    1UNL    C17   21   0.014   0.061   0.071
    1UNL    C18   22  -0.035   0.141  -0.041
    1UNL    C19   23  -0.085   0.270  -0.015
    1UNL    C20   24  -0.119   0.352  -0.128
    1UNL     O5   25  -0.150   0.481  -0.121
    1UNL    C21   26  -0.114   0.298  -0.256
    1UNL    C22   27  -0.066   0.170  -0.281
    1UNL     O6   28  -0.063   0.119  -0.415
    1UNL    C23   29  -0.015   0.096  -0.173
    1UNL     H1   30   0.320   0.208   0.120
    1UNL     H2   31   0.224   0.206  -0.036
    1UNL     H3   32   0.172   0.291   0.096
    1UNL     H4   33   0.128   0.165   0.302
    1UNL     H5   34   0.093  -0.012   0.302
    1UNL     H6   35   0.256   0.043   0.297
    1UNL     H7   36   0.419  -0.004   0.168
    1UNL     H8   37   0.553  -0.154   0.041
    1UNL     H9   38   0.525  -0.405   0.004
    1UNL    H10   39   0.205  -0.344  -0.099
    1UNL    H11   40   0.000  -0.145   0.163
    1UNL    H12   41  -0.192   0.006   0.279
    1UNL    H13   42  -0.425  -0.021   0.306
    1UNL    H14   43  -0.639  -0.188   0.066
    1UNL    H15   44  -0.459  -0.223  -0.071
    1UNL    H16   45  -0.109  -0.222  -0.114
    1UNL    H17   46  -0.041   0.097   0.149
    1UNL    H18   47  -0.076   0.313   0.081
    1UNL    H19   48  -0.209   0.510  -0.198
    1UNL    H20   49  -0.162   0.349  -0.333
    1UNL    H21   50   0.002   0.039  -0.424
    1UNL    H22   51   0.023  -0.007  -0.186
   0.00000   0.00000   0.00000   0.00000   0.00000   0.00000   0.00000   0.00000   0.00000
Generated with MDTraj, t= 50.0
 51
    1UNL     C1    1   0.234   0.207   0.076
    1UNL     C2    2   0.188   0.074   0.126
    1UNL     C3    3   0.201   0.064   0.283
    1UNL     C4    4   0.253  -0.052   0.072
    1UNL     C5    5   0.388  -0.079   0.100
    1UNL     C6    6   0.451  -0.184   0.045
    1UNL     C7    7   0.380  -0.270  -0.040
    1UNL     O1    8   0.440  -0.371  -0.122
    1UNL     C8    9   0.243  -0.258  -0.052
    1UNL     C9   10   0.178  -0.152   0.007
    1UNL     O2   11   0.043  -0.150  -0.016
    1UNL    C10   12  -0.027  -0.070   0.083
    1UNL    C11   13  -0.183  -0.080   0.074
    1UNL    C12   14  -0.259  -0.014   0.174
    1UNL    C13   15  -0.400  -0.029   0.190
    1UNL    C14   16  -0.467  -0.111   0.099
    1UNL     O3   17  -0.605  -0.124   0.109
    1UNL    C15   18  -0.395  -0.179   0.004
    1UNL    C16   19  -0.258  -0.159  -0.019
    1UNL     O4   20  -0.191  -0.225  -0.120
    1UNL    C17   21   0.027   0.073   0.092
    1UNL    C18   22  -0.017   0.142  -0.031
    1UNL    C19   23  -0.082   0.262  -0.014
    1UNL    C20   24  -0.132   0.332  -0.129
    1UNL     O5   25  -0.212   0.449  -0.113
    1UNL    C21   26  -0.127   0.267  -0.251
    1UNL    C22   27  -0.065   0.145  -0.266
    1UNL     O6   28  -0.071   0.098  -0.391
    1UNL    C23   29  -0.005   0.079  -0.154
    1UNL     H1   30   0.333   0.226   0.110
    1UNL     H2   31   0.221   0.214  -0.031
    1UNL     H3   32   0.172   0.288   0.107
    1UNL     H4   33   0.142   0.152   0.317
    1UNL     H5   34   0.162  -0.030   0.313
    1UNL     H6   35   0.298   0.073   0.315
    1UNL     H7   36   0.430  -0.016   0.174
    1UNL     H8   37   0.560  -0.213   0.063
    1UNL     H9   38   0.512  -0.428  -0.084
    1UNL    H10   39   0.194  -0.332  -0.118
    1UNL    H11   40  -0.003  -0.125   0.171
    1UNL    H12   41  -0.204   0.031   0.251
    1UNL    H13   42  -0.458   0.023   0.266
    1UNL    H14   43  -0.650  -0.189   0.048
    1UNL    H15   44  -0.454  -0.233  -0.070
    1UNL    H16   45  -0.098  -0.204  -0.099
    1UNL    H17   46  -0.024   0.120   0.169
    1UNL    H18   47  -0.087   0.316   0.079
    1UNL    H19   48  -0.282   0.441  -0.183
    1UNL    H20   49  -0.164   0.318  -0.341
    1UNL    H21   50  -0.014   0.012  -0.401
    1UNL    H22   51   0.044  -0.012  -0.164
   0.00000   0.00000   0.00000   0.00000   0.00000   0.00000   0.00000   0.00000   0.00000
Generated with MDTraj, t= 51.0
 51
    1UNL     C1    1   0.247   0.185   0.055
    1UNL     C2    2   0.183   0.066   0.133
    1UNL     C3    3   0.217   0.077   0.284
    1UNL     C4    4   0.249  -0.057   0.080
    1UNL     C5    5   0.390  -0.068   0.073
    1UNL     C6    6   0.451  -0.162  -0.004
    1UNL     C7    7   0.377  -0.269  -0.067
    1UNL     O1    8   0.422  -0.375  -0.133
    1UNL     C8    9   0.237  -0.255  -0.053
    1UNL     C9   10   0.174  -0.154   0.013
    1UNL     O2   11   0.035  -0.146   0.007
    1UNL    C10   12  -0.030  -0.070   0.112
    1UNL    C11   13  -0.184  -0.075   0.089
    1UNL    C12   14  -0.263  -0.010   0.184
    1UNL    C13   15  -0.398  -0.014   0.172
    1UNL    C14   16  -0.456  -0.091   0.072
    1UNL     O3   17  -0.595  -0.094   0.057
    1UNL    C15   18  -0.376  -0.154  -0.021
    1UNL    C16   19  -0.241  -0.153  -0.014
    1UNL     O4   20  -0.180  -0.234  -0.100
    1UNL    C17   21   0.028   0.069   0.117
    1UNL    C18   22  -0.027   0.143  -0.008
    1UNL    C19   23  -0.096   0.258  -0.003
    1UNL    C20   24  -0.163   0.308  -0.118
    1UNL     O5   25  -0.241   0.430  -0.115
    1UNL    C21   26  -0.136   0.247  -0.241
    1UNL    C22   27  -0.058   0.136  -0.250
    1UNL     O6   28  -0.040   0.069  -0.368
    1UNL    C23   29  -0.005   0.088  -0.130
    1UNL     H1   30   0.348   0.206   0.083
    1UNL     H2   31   0.240   0.173  -0.052
    1UNL     H3   32   0.187   0.273   0.062
    1UNL     H4   33   0.167   0.171   0.318
    1UNL     H5   34   0.169  -0.006   0.327
    1UNL     H6   35   0.317   0.082   0.310
    1UNL     H7   36   0.446   0.011   0.124
    1UNL     H8   37   0.552  -0.178   0.009
    1UNL     H9   38   0.489  -0.429  -0.076
    1UNL    H10   39   0.177  -0.312  -0.119
    1UNL    H11   40  -0.006  -0.125   0.200
    1UNL    H12   41  -0.212   0.036   0.270
    1UNL    H13   42  -0.464   0.003   0.252
    1UNL    H14   43  -0.607  -0.164  -0.007
    1UNL    H15   44  -0.416  -0.226  -0.088
    1UNL    H16   45  -0.086  -0.235  -0.079
    1UNL    H17   46  -0.000   0.126   0.202
    1UNL    H18   47  -0.119   0.297   0.098
    1UNL    H19   48  -0.313   0.428  -0.179
    1UNL    H20   49  -0.169   0.285  -0.337
    1UNL    H21   50   0.017  -0.013  -0.358
    1UNL    H22   51   0.058  -0.000  -0.146
   0.00000   0.00000   0.00000   0.00000   0.00000   0.00000   0.00000   0.00000   0.00000
Generated with MDTraj, t= 52.0
 51
    1UNL     C1    1   0.223   0.193   0.053
    1UNL     C2    2   0.177   0.067   0.127
    1UNL     C3    3   0.218   0.066   0.273
    1UNL     C4    4   0.246  -0.049   0.061
    1UNL     C5    5   0.384  -0.042   0.033
    1UNL     C6    6   0.451  -0.145  -0.027
    1UNL     C7    7   0.383  -0.258  -0.061
    1UNL     O1    8   0.448  -0.363  -0.132
    1UNL     C8    9   0.245  -0.262  -0.035
    1UNL     C9   10   0.176  -0.165   0.033
    1UNL     O2   11   0.040  -0.191   0.059
    1UNL    C10   12  -0.030  -0.091   0.130
    1UNL    C11   13  -0.186  -0.094   0.111
    1UNL    C12   14  -0.265  -0.013   0.191
    1UNL    C13   15  -0.397   0.003   0.174
    1UNL    C14   16  -0.457  -0.053   0.060
    1UNL     O3   17  -0.589  -0.035   0.022
    1UNL    C15   18  -0.377  -0.132  -0.019
    1UNL    C16   19  -0.244  -0.150   0.000
    1UNL     O4   20  -0.174  -0.228  -0.094
    1UNL    C17   21   0.018   0.057   0.112
    1UNL    C18   22  -0.033   0.117  -0.014
    1UNL    C19   23  -0.127   0.219  -0.004
    1UNL    C20   24  -0.173   0.286  -0.112
    1UNL     O5   25  -0.244   0.401  -0.086
    1UNL    C21   26  -0.140   0.240  -0.237
    1UNL    C22   27  -0.053   0.133  -0.259
    1UNL     O6   28  -0.015   0.084  -0.386
    1UNL    C23   29  -0.001   0.074  -0.142
    1UNL     H1   30   0.330   0.193   0.045
    1UNL     H2   31   0.185   0.206  -0.046
    1UNL     H3   32   0.184   0.279   0.101
    1UNL     H4   33   0.175   0.142   0.335
    1UNL     H5   34   0.203  -0.029   0.319
    1UNL     H6   35   0.323   0.092   0.276
    1UNL     H7   36   0.438   0.039   0.081
    1UNL     H8   37   0.559  -0.148  -0.053
    1UNL     H9   38   0.431  -0.356  -0.231
    1UNL    H10   39   0.198  -0.352  -0.073
    1UNL    H11   40  -0.022  -0.117   0.233
    1UNL    H12   41  -0.220   0.022   0.281
    1UNL    H13   42  -0.456   0.063   0.246
    1UNL    H14   43  -0.611  -0.090  -0.052
    1UNL    H15   44  -0.422  -0.165  -0.113
    1UNL    H16   45  -0.085  -0.246  -0.057
    1UNL    H17   46  -0.015   0.124   0.191
    1UNL    H18   47  -0.166   0.243   0.089
    1UNL    H19   48  -0.305   0.424  -0.155
    1UNL    H20   49  -0.177   0.294  -0.319
    1UNL    H21   50   0.029   0.001  -0.365
    1UNL    H22   51   0.082   0.007  -0.161
   0.00000   0.00000   0.00000   0.00000   0.00000   0.00000   0.00000   0.00000   0.00000
Generated with MDTraj, t= 53.0
 51
    1UNL     C1    1   0.206   0.208   0.084
    1UNL     C2    2   0.169   0.069   0.135
    1UNL     C3    3   0.206   0.050   0.283
    1UNL     C4    4   0.243  -0.043   0.049
    1UNL     C5    5   0.367  -0.025  -0.011
    1UNL     C6    6   0.436  -0.130  -0.065
    1UNL     C7    7   0.376  -0.255  -0.068
    1UNL     O1    8   0.446  -0.365  -0.126
    1UNL     C8    9   0.247  -0.277  -0.021
    1UNL     C9   10   0.182  -0.171   0.041
    1UNL     O2   11   0.050  -0.202   0.076
    1UNL    C10   12  -0.021  -0.101   0.142
    1UNL    C11   13  -0.171  -0.111   0.115
    1UNL    C12   14  -0.256  -0.043   0.209
    1UNL    C13   15  -0.384   0.002   0.179
    1UNL    C14   16  -0.441  -0.030   0.057
    1UNL     O3   17  -0.561   0.018   0.018
    1UNL    C15   18  -0.364  -0.105  -0.035
    1UNL    C16   19  -0.237  -0.152  -0.002
    1UNL     O4   20  -0.170  -0.222  -0.102
    1UNL    C17   21   0.011   0.047   0.118
    1UNL    C18   22  -0.046   0.107  -0.014
    1UNL    C19   23  -0.138   0.215  -0.013
    1UNL    C20   24  -0.184   0.284  -0.123
    1UNL     O5   25  -0.278   0.379  -0.099
    1UNL    C21   26  -0.137   0.242  -0.248
    1UNL    C22   27  -0.046   0.129  -0.254
    1UNL     O6   28   0.002   0.088  -0.377
    1UNL    C23   29  -0.003   0.061  -0.138
    1UNL     H1   30   0.304   0.232   0.124
    1UNL     H2   31   0.218   0.210  -0.022
    1UNL     H3   32   0.125   0.275   0.103
    1UNL     H4   33   0.176   0.120   0.354
    1UNL     H5   34   0.183  -0.047   0.323
    1UNL     H6   35   0.318   0.063   0.294
    1UNL     H7   36   0.416   0.066   0.009
    1UNL     H8   37   0.533  -0.120  -0.105
    1UNL     H9   38   0.508  -0.406  -0.064
    1UNL    H10   39   0.190  -0.370  -0.025
    1UNL    H11   40  -0.026  -0.124   0.249
    1UNL    H12   41  -0.206  -0.020   0.302
    1UNL    H13   42  -0.432   0.065   0.247
    1UNL    H14   43  -0.587  -0.023  -0.065
    1UNL    H15   44  -0.404  -0.117  -0.133
    1UNL    H16   45  -0.078  -0.243  -0.068
    1UNL    H17   46  -0.027   0.106   0.203
    1UNL    H18   47  -0.166   0.255   0.090
    1UNL    H19   48  -0.345   0.371  -0.169
    1UNL    H20   49  -0.197   0.278  -0.335
    1UNL    H21   50   0.031  -0.001  -0.368
    1UNL    H22   51   0.061  -0.021  -0.142
   0.00000   0.00000   0.00000   0.00000   0.00000   0.00000   0.00000   0.00000   0.00000
Generated with MDTraj, t= 54.0
 51
    1UNL     C1    1   0.215   0.211   0.103
    1UNL     C2    2   0.178   0.062   0.141
    1UNL     C3    3   0.235   0.036   0.283
    1UNL     C4    4   0.246  -0.040   0.047
    1UNL     C5    5   0.367  -0.023  -0.014
    1UNL     C6    6   0.438  -0.128  -0.077
    1UNL     C7    7   0.380  -0.258  -0.082
    1UNL     O1    8   0.437  -0.366  -0.135
    1UNL     C8    9   0.250  -0.269  -0.033
    1UNL     C9   10   0.176  -0.164   0.032
    1UNL     O2   11   0.045  -0.191   0.081
    1UNL    C10   12  -0.028  -0.090   0.155
    1UNL    C11   13  -0.182  -0.093   0.127
    1UNL    C12   14  -0.277  -0.055   0.216
    1UNL    C13   15  -0.403  -0.016   0.181
    1UNL    C14   16  -0.444  -0.020   0.049
    1UNL     O3   17  -0.568   0.026   0.009
    1UNL    C15   18  -0.358  -0.082  -0.044
    1UNL    C16   19  -0.230  -0.120  -0.001
    1UNL     O4   20  -0.162  -0.179  -0.105
    1UNL    C17   21   0.017   0.055   0.132
    1UNL    C18   22  -0.036   0.110  -0.004
    1UNL    C19   23  -0.141   0.202   0.002
    1UNL    C20   24  -0.196   0.250  -0.120
    1UNL     O5   25  -0.291   0.355  -0.119
    1UNL    C21   26  -0.152   0.204  -0.246
    1UNL    C22   27  -0.045   0.111  -0.250
    1UNL     O6   28   0.015   0.066  -0.368
    1UNL    C23   29   0.008   0.064  -0.132
    1UNL     H1   30   0.317   0.226   0.132
    1UNL     H2   31   0.222   0.229  -0.001
    1UNL     H3   32   0.145   0.283   0.140
    1UNL     H4   33   0.203   0.103   0.356
    1UNL     H5   34   0.202  -0.062   0.317
    1UNL     H6   35   0.347   0.040   0.293
    1UNL     H7   36   0.423   0.072  -0.015
    1UNL     H8   37   0.544  -0.112  -0.099
    1UNL     H9   38   0.526  -0.335  -0.149
    1UNL    H10   39   0.190  -0.351  -0.061
    1UNL    H11   40  -0.023  -0.124   0.263
    1UNL    H12   41  -0.243  -0.051   0.318
    1UNL    H13   42  -0.474   0.031   0.252
    1UNL    H14   43  -0.569   0.013  -0.090
    1UNL    H15   44  -0.393  -0.077  -0.147
    1UNL    H16   45  -0.069  -0.201  -0.079
    1UNL    H17   46  -0.006   0.133   0.209
    1UNL    H18   47  -0.160   0.255   0.090
    1UNL    H19   48  -0.350   0.349  -0.199
    1UNL    H20   49  -0.195   0.240  -0.333
    1UNL    H21   50   0.063  -0.013  -0.357
    1UNL    H22   51   0.075  -0.025  -0.139
   0.00000   0.00000   0.00000   0.00000   0.00000   0.00000   0.00000   0.00000   0.00000
Generated with MDTraj, t= 55.0
 51
    1UNL     C1    1   0.234   0.199   0.115
    1UNL     C2    2   0.180   0.066   0.156
    1UNL     C3    3   0.215   0.057   0.308
    1UNL     C4    4   0.246  -0.051   0.075
    1UNL     C5    5   0.374  -0.040   0.028
    1UNL     C6    6   0.427  -0.144  -0.059
    1UNL     C7    7   0.355  -0.254  -0.087
    1UNL     O1    8   0.408  -0.350  -0.185
    1UNL     C8    9   0.225  -0.264  -0.040
    1UNL     C9   10   0.171  -0.166   0.043
    1UNL     O2   11   0.035  -0.187   0.077
    1UNL    C10   12  -0.031  -0.076   0.142
    1UNL    C11   13  -0.178  -0.070   0.109
    1UNL    C12   14  -0.264  -0.025   0.206
    1UNL    C13   15  -0.395  -0.001   0.182
    1UNL    C14   16  -0.445  -0.031   0.057
    1UNL     O3   17  -0.578  -0.017   0.027
    1UNL    C15   18  -0.357  -0.086  -0.037
    1UNL    C16   19  -0.223  -0.106  -0.016
    1UNL     O4   20  -0.144  -0.150  -0.125
    1UNL    C17   21   0.026   0.060   0.127
    1UNL    C18   22  -0.010   0.125  -0.006
    1UNL    C19   23  -0.122   0.200  -0.010
    1UNL    C20   24  -0.189   0.239  -0.129
    1UNL     O5   25  -0.309   0.315  -0.116
    1UNL    C21   26  -0.140   0.187  -0.248
    1UNL    C22   27  -0.033   0.106  -0.250
    1UNL     O6   28   0.005   0.052  -0.372
    1UNL    C23   29   0.040   0.087  -0.130
    1UNL     H1   30   0.338   0.204   0.130
    1UNL     H2   31   0.225   0.221   0.011
    1UNL     H3   32   0.185   0.279   0.167
    1UNL     H4   33   0.150   0.130   0.355
    1UNL     H5   34   0.193  -0.040   0.354
    1UNL     H6   35   0.315   0.096   0.324
    1UNL     H7   36   0.437   0.046   0.047
    1UNL     H8   37   0.528  -0.147  -0.097
    1UNL     H9   38   0.467  -0.302  -0.248
    1UNL    H10   39   0.158  -0.350  -0.066
    1UNL    H11   40  -0.041  -0.113   0.250
    1UNL    H12   41  -0.216  -0.007   0.300
    1UNL    H13   42  -0.453   0.036   0.262
    1UNL    H14   43  -0.596  -0.054  -0.066
    1UNL    H15   44  -0.388  -0.102  -0.138
    1UNL    H16   45  -0.061  -0.173  -0.081
    1UNL    H17   46  -0.022   0.133   0.200
    1UNL    H18   47  -0.175   0.220   0.082
    1UNL    H19   48  -0.375   0.307  -0.193
    1UNL    H20   49  -0.169   0.225  -0.347
    1UNL    H21   50   0.044  -0.033  -0.354
    1UNL    H22   51   0.129   0.029  -0.137
   0.00000   0.00000   0.00000   0.00000   0.00000   0.00000   0.00000   0.00000   0.00000
Generated with MDTraj, t= 56.0
 51
    1UNL     C1    1   0.270   0.200   0.116
    1UNL     C2    2   0.200   0.068   0.153
    1UNL     C3    3   0.224   0.040   0.304
    1UNL     C4    4   0.249  -0.048   0.070
    1UNL     C5    5   0.381  -0.055   0.039
    1UNL     C6    6   0.429  -0.161  -0.036
    1UNL     C7    7   0.342  -0.247  -0.105
    1UNL     O1    8   0.402  -0.342  -0.202
    1UNL     C8    9   0.206  -0.246  -0.070
    1UNL     C9   10   0.157  -0.150   0.024
    1UNL     O2   11   0.030  -0.169   0.080
    1UNL    C10   12  -0.033  -0.054   0.146
    1UNL    C11   13  -0.184  -0.054   0.111
    1UNL    C12   14  -0.273  -0.004   0.206
    1UNL    C13   15  -0.409  -0.010   0.184
    1UNL    C14   16  -0.462  -0.057   0.063
    1UNL     O3   17  -0.600  -0.052   0.035
    1UNL    C15   18  -0.376  -0.102  -0.030
    1UNL    C16   19  -0.240  -0.113  -0.004
    1UNL     O4   20  -0.161  -0.170  -0.096
    1UNL    C17   21   0.037   0.077   0.129
    1UNL    C18   22  -0.015   0.128  -0.007
    1UNL    C19   23  -0.121   0.210  -0.018
    1UNL    C20   24  -0.189   0.232  -0.135
    1UNL     O5   25  -0.302   0.313  -0.135
    1UNL    C21   26  -0.132   0.179  -0.250
    1UNL    C22   27  -0.009   0.114  -0.248
    1UNL     O6   28   0.045   0.071  -0.368
    1UNL    C23   29   0.046   0.088  -0.123
    1UNL     H1   30   0.375   0.208   0.130
    1UNL     H2   31   0.252   0.224   0.014
    1UNL     H3   32   0.219   0.275   0.172
    1UNL     H4   33   0.174   0.126   0.359
    1UNL     H5   34   0.167  -0.051   0.327
    1UNL     H6   35   0.328   0.042   0.317
    1UNL     H7   36   0.452   0.002   0.099
    1UNL     H8   37   0.537  -0.162  -0.053
    1UNL     H9   38   0.483  -0.298  -0.246
    1UNL    H10   39   0.143  -0.319  -0.106
    1UNL    H11   40  -0.047  -0.085   0.257
    1UNL    H12   41  -0.230   0.036   0.298
    1UNL    H13   42  -0.479   0.032   0.256
    1UNL    H14   43  -0.623  -0.104  -0.049
    1UNL    H15   44  -0.418  -0.132  -0.124
    1UNL    H16   45  -0.081  -0.191  -0.045
    1UNL    H17   46   0.002   0.157   0.204
    1UNL    H18   47  -0.178   0.238   0.074
    1UNL    H19   48  -0.353   0.299  -0.221
    1UNL    H20   49  -0.176   0.200  -0.346
    1UNL    H21   50   0.117   0.005  -0.358
    1UNL    H22   51   0.134   0.033  -0.124
   0.00000   0.00000   0.00000   0.00000   0.00000   0.00000   0.00000   0.00000   0.00000
Generated with MDTraj, t= 57.0
 51
    1UNL     C1    1   0.243   0.210   0.118
    1UNL     C2    2   0.186   0.068   0.150
    1UNL     C3    3   0.196   0.044   0.305
    1UNL     C4    4   0.244  -0.043   0.070
    1UNL     C5    5   0.372  -0.033   0.020
    1UNL     C6    6   0.417  -0.133  -0.068
    1UNL     C7    7   0.342  -0.255  -0.101
    1UNL     O1    8   0.382  -0.350  -0.188
    1UNL     C8    9   0.215  -0.258  -0.046
    1UNL     C9   10   0.165  -0.157   0.038
    1UNL     O2   11   0.027  -0.181   0.074
    1UNL    C10   12  -0.030  -0.073   0.144
    1UNL    C11   13  -0.185  -0.070   0.114
    1UNL    C12   14  -0.264  -0.007   0.204
    1UNL    C13   15  -0.402  -0.004   0.191
    1UNL    C14   16  -0.465  -0.064   0.084
    1UNL     O3   17  -0.607  -0.054   0.083
    1UNL    C15   18  -0.383  -0.126  -0.010
    1UNL    C16   19  -0.242  -0.131  -0.002
    1UNL     O4   20  -0.175  -0.180  -0.111
    1UNL    C17   21   0.031   0.065   0.117
    1UNL    C18   22  -0.016   0.118  -0.012
    1UNL    C19   23  -0.132   0.198  -0.020
    1UNL    C20   24  -0.170   0.250  -0.146
    1UNL     O5   25  -0.287   0.317  -0.162
    1UNL    C21   26  -0.094   0.223  -0.261
    1UNL    C22   27   0.015   0.132  -0.253
    1UNL     O6   28   0.087   0.098  -0.368
    1UNL    C23   29   0.043   0.071  -0.129
    1UNL     H1   30   0.333   0.226   0.173
    1UNL     H2   31   0.268   0.223   0.015
    1UNL     H3   32   0.173   0.280   0.154
    1UNL     H4   33   0.140   0.122   0.367
    1UNL     H5   34   0.149  -0.052   0.322
    1UNL     H6   35   0.301   0.044   0.321
    1UNL     H7   36   0.431   0.052   0.039
    1UNL     H8   37   0.519  -0.125  -0.100
    1UNL     H9   38   0.446  -0.309  -0.257
    1UNL    H10   39   0.147  -0.345  -0.061
    1UNL    H11   40  -0.017  -0.107   0.253
    1UNL    H12   41  -0.212   0.035   0.287
    1UNL    H13   42  -0.463   0.057   0.257
    1UNL    H14   43  -0.630  -0.115   0.005
    1UNL    H15   44  -0.432  -0.156  -0.102
    1UNL    H16   45  -0.079  -0.167  -0.094
    1UNL    H17   46  -0.000   0.146   0.196
    1UNL    H18   47  -0.183   0.231   0.062
    1UNL    H19   48  -0.307   0.313  -0.259
    1UNL    H20   49  -0.122   0.273  -0.350
    1UNL    H21   50   0.144   0.016  -0.346
    1UNL    H22   51   0.126  -0.004  -0.126
   0.00000   0.00000   0.00000   0.00000   0.00000   0.00000   0.00000   0.00000   0.00000
Generated with MDTraj, t= 58.0
 51
    1UNL     C1    1   0.215   0.206   0.112
    1UNL     C2    2   0.163   0.066   0.134
    1UNL     C3    3   0.197   0.028   0.274
    1UNL     C4    4   0.227  -0.041   0.050
    1UNL     C5    5   0.361  -0.027  -0.002
    1UNL     C6    6   0.412  -0.127  -0.078
    1UNL     C7    7   0.349  -0.248  -0.096
    1UNL     O1    8   0.418  -0.350  -0.165
    1UNL     C8    9   0.221  -0.260  -0.039
    1UNL     C9   10   0.155  -0.162   0.027
    1UNL     O2   11   0.025  -0.190   0.077
    1UNL    C10   12  -0.043  -0.087   0.149
    1UNL    C11   13  -0.198  -0.089   0.142
    1UNL    C12   14  -0.277  -0.043   0.248
    1UNL    C13   15  -0.413  -0.028   0.226
    1UNL    C14   16  -0.472  -0.064   0.104
    1UNL     O3   17  -0.608  -0.056   0.089
    1UNL    C15   18  -0.395  -0.117   0.003
    1UNL    C16   19  -0.259  -0.131   0.023
    1UNL     O4   20  -0.184  -0.195  -0.075
    1UNL    C17   21   0.010   0.057   0.108
    1UNL    C18   22  -0.019   0.112  -0.030
    1UNL    C19   23  -0.135   0.194  -0.048
    1UNL    C20   24  -0.156   0.263  -0.170
    1UNL     O5   25  -0.250   0.358  -0.183
    1UNL    C21   26  -0.076   0.231  -0.275
    1UNL    C22   27   0.031   0.141  -0.265
    1UNL     O6   28   0.114   0.131  -0.376
    1UNL    C23   29   0.072   0.091  -0.140
    1UNL     H1   30   0.318   0.210   0.141
    1UNL     H2   31   0.209   0.232   0.009
    1UNL     H3   32   0.164   0.271   0.176
    1UNL     H4   33   0.130   0.086   0.338
    1UNL     H5   34   0.177  -0.077   0.302
    1UNL     H6   35   0.301   0.059   0.291
    1UNL     H7   36   0.404   0.071   0.004
    1UNL     H8   37   0.512  -0.121  -0.120
    1UNL     H9   38   0.500  -0.326  -0.214
    1UNL    H10   39   0.170  -0.347  -0.069
    1UNL    H11   40  -0.040  -0.112   0.261
    1UNL    H12   41  -0.231  -0.010   0.343
    1UNL    H13   42  -0.467   0.007   0.310
    1UNL    H14   43  -0.632  -0.083  -0.002
    1UNL    H15   44  -0.439  -0.151  -0.088
    1UNL    H16   45  -0.088  -0.192  -0.049
    1UNL    H17   46  -0.035   0.132   0.188
    1UNL    H18   47  -0.198   0.210   0.044
    1UNL    H19   48  -0.261   0.380  -0.277
    1UNL    H20   49  -0.107   0.263  -0.377
    1UNL    H21   50   0.195   0.075  -0.346
    1UNL    H22   51   0.163   0.033  -0.136
   0.00000   0.00000   0.00000   0.00000   0.00000   0.00000   0.00000   0.00000   0.00000
Generated with MDTraj, t= 59.0
 51
    1UNL     C1    1   0.209   0.214   0.083
    1UNL     C2    2   0.157   0.072   0.132
    1UNL     C3    3   0.178   0.057   0.282
    1UNL     C4    4   0.224  -0.043   0.056
    1UNL     C5    5   0.358  -0.037   0.012
    1UNL     C6    6   0.423  -0.129  -0.058
    1UNL     C7    7   0.352  -0.249  -0.085
    1UNL     O1    8   0.409  -0.357  -0.154
    1UNL     C8    9   0.223  -0.268  -0.040
    1UNL     C9   10   0.159  -0.165   0.025
    1UNL     O2   11   0.023  -0.184   0.047
    1UNL    C10   12  -0.038  -0.088   0.125
    1UNL    C11   13  -0.192  -0.102   0.126
    1UNL    C12   14  -0.258  -0.053   0.235
    1UNL    C13   15  -0.398  -0.041   0.237
    1UNL    C14   16  -0.471  -0.075   0.122
    1UNL     O3   17  -0.611  -0.064   0.127
    1UNL    C15   18  -0.401  -0.123   0.012
    1UNL    C16   19  -0.264  -0.135   0.008
    1UNL     O4   20  -0.195  -0.188  -0.107
    1UNL    C17   21   0.000   0.058   0.105
    1UNL    C18   22  -0.033   0.113  -0.029
    1UNL    C19   23  -0.126   0.210  -0.046
    1UNL    C20   24  -0.144   0.272  -0.168
    1UNL     O5   25  -0.245   0.372  -0.183
    1UNL    C21   26  -0.060   0.240  -0.274
    1UNL    C22   27   0.044   0.149  -0.260
    1UNL     O6   28   0.119   0.120  -0.372
    1UNL    C23   29   0.046   0.081  -0.140
    1UNL     H1   30   0.313   0.222   0.103
    1UNL     H2   31   0.204   0.230  -0.022
    1UNL     H3   32   0.168   0.293   0.138
    1UNL     H4   33   0.113   0.118   0.338
    1UNL     H5   34   0.151  -0.040   0.330
    1UNL     H6   35   0.285   0.073   0.321
    1UNL     H7   36   0.413   0.054   0.045
    1UNL     H8   37   0.523  -0.114  -0.095
    1UNL     H9   38   0.502  -0.337  -0.162
    1UNL    H10   39   0.195  -0.374  -0.057
    1UNL    H11   40  -0.025  -0.123   0.231
    1UNL    H12   41  -0.202  -0.018   0.318
    1UNL    H13   42  -0.446  -0.002   0.330
    1UNL    H14   43  -0.652  -0.081   0.042
    1UNL    H15   44  -0.460  -0.162  -0.071
    1UNL    H16   45  -0.103  -0.194  -0.072
    1UNL    H17   46  -0.051   0.124   0.189
    1UNL    H18   47  -0.169   0.249   0.042
    1UNL    H19   48  -0.263   0.379  -0.277
    1UNL    H20   49  -0.080   0.273  -0.370
    1UNL    H21   50   0.205   0.068  -0.350
    1UNL    H22   51   0.120   0.010  -0.136
   0.00000   0.00000   0.00000   0.00000   0.00000   0.00000   0.00000   0.00000   0.00000
Generated with MDTraj, t= 60.0
 51
    1UNL     C1    1   0.241   0.193   0.068
    1UNL     C2    2   0.170   0.073   0.132
    1UNL     C3    3   0.183   0.054   0.283
    1UNL     C4    4   0.236  -0.051   0.073
    1UNL     C5    5   0.377  -0.059   0.069
    1UNL     C6    6   0.447  -0.158   0.004
    1UNL     C7    7   0.373  -0.250  -0.075
    1UNL     O1    8   0.426  -0.342  -0.148
    1UNL     C8    9   0.235  -0.246  -0.068
    1UNL     C9   10   0.170  -0.157   0.009
    1UNL     O2   11   0.026  -0.165   0.019
    1UNL    C10   12  -0.043  -0.076   0.113
    1UNL    C11   13  -0.199  -0.088   0.122
    1UNL    C12   14  -0.267  -0.044   0.234
    1UNL    C13   15  -0.406  -0.055   0.239
    1UNL    C14   16  -0.480  -0.095   0.130
    1UNL     O3   17  -0.621  -0.091   0.148
    1UNL    C15   18  -0.416  -0.123   0.008
    1UNL    C16   19  -0.274  -0.119   0.003
    1UNL     O4   20  -0.214  -0.149  -0.115
    1UNL    C17   21   0.009   0.071   0.099
    1UNL    C18   22  -0.030   0.113  -0.039
    1UNL    C19   23  -0.118   0.215  -0.048
    1UNL    C20   24  -0.143   0.281  -0.164
    1UNL     O5   25  -0.239   0.382  -0.171
    1UNL    C21   26  -0.070   0.241  -0.276
    1UNL    C22   27   0.014   0.134  -0.277
    1UNL     O6   28   0.082   0.099  -0.391
    1UNL    C23   29   0.027   0.070  -0.155
    1UNL     H1   30   0.342   0.209   0.097
    1UNL     H2   31   0.241   0.184  -0.038
    1UNL     H3   32   0.186   0.278   0.099
    1UNL     H4   33   0.138   0.133   0.338
    1UNL     H5   34   0.126  -0.034   0.322
    1UNL     H6   35   0.291   0.036   0.317
    1UNL     H7   36   0.426   0.012   0.127
    1UNL     H8   37   0.555  -0.155  -0.014
    1UNL     H9   38   0.518  -0.353  -0.126
    1UNL    H10   39   0.162  -0.311  -0.115
    1UNL    H11   40  -0.007  -0.121   0.206
    1UNL    H12   41  -0.202   0.005   0.310
    1UNL    H13   42  -0.463  -0.026   0.320
    1UNL    H14   43  -0.650  -0.114   0.060
    1UNL    H15   44  -0.474  -0.171  -0.066
    1UNL    H16   45  -0.121  -0.163  -0.091
    1UNL    H17   46  -0.040   0.148   0.174
    1UNL    H18   47  -0.175   0.241   0.039
    1UNL    H19   48  -0.254   0.402  -0.266
    1UNL    H20   49  -0.076   0.300  -0.370
    1UNL    H21   50   0.153   0.033  -0.361
    1UNL    H22   51   0.108  -0.007  -0.155
   0.00000   0.00000   0.00000   0.00000   0.00000   0.00000   0.00000   0.00000   0.00000
Generated with MDTraj, t= 61.0
 51
    1UNL     C1    1   0.239   0.190   0.088
    1UNL     C2    2   0.163   0.064   0.137
    1UNL     C3    3   0.161   0.060   0.291
    1UNL     C4    4   0.235  -0.054   0.081
    1UNL     C5    5   0.372  -0.084   0.101
    1UNL     C6    6   0.442  -0.183   0.035
    1UNL     C7    7   0.369  -0.264  -0.048
    1UNL     O1    8   0.429  -0.355  -0.131
    1UNL     C8    9   0.231  -0.250  -0.058
    1UNL     C9   10   0.158  -0.144   0.004
    1UNL     O2   11   0.027  -0.141  -0.016
    1UNL    C10   12  -0.034  -0.076   0.093
    1UNL    C11   13  -0.185  -0.087   0.102
    1UNL    C12   14  -0.239  -0.068   0.227
    1UNL    C13   15  -0.373  -0.078   0.242
    1UNL    C14   16  -0.460  -0.096   0.131
    1UNL     O3   17  -0.594  -0.106   0.159
    1UNL    C15   18  -0.406  -0.113   0.004
    1UNL    C16   19  -0.264  -0.104  -0.015
    1UNL     O4   20  -0.210  -0.143  -0.139
    1UNL    C17   21   0.012   0.074   0.094
    1UNL    C18   22  -0.010   0.140  -0.039
    1UNL    C19   23  -0.098   0.247  -0.047
    1UNL    C20   24  -0.152   0.299  -0.171
    1UNL     O5   25  -0.241   0.410  -0.172
    1UNL    C21   26  -0.110   0.237  -0.288
    1UNL    C22   27  -0.019   0.131  -0.280
    1UNL     O6   28   0.025   0.070  -0.403
    1UNL    C23   29   0.037   0.087  -0.156
    1UNL     H1   30   0.332   0.202   0.137
    1UNL     H2   31   0.259   0.178  -0.016
    1UNL     H3   32   0.181   0.276   0.108
    1UNL     H4   33   0.103   0.147   0.330
    1UNL     H5   34   0.116  -0.031   0.334
    1UNL     H6   35   0.270   0.067   0.309
    1UNL     H7   36   0.436  -0.008   0.149
    1UNL     H8   37   0.548  -0.196   0.054
    1UNL     H9   38   0.519  -0.369  -0.094
    1UNL    H10   39   0.186  -0.319  -0.127
    1UNL    H11   40  -0.001  -0.128   0.182
    1UNL    H12   41  -0.174  -0.042   0.306
    1UNL    H13   42  -0.408  -0.074   0.349
    1UNL    H14   43  -0.653  -0.114   0.080
    1UNL    H15   44  -0.474  -0.153  -0.073
    1UNL    H16   45  -0.115  -0.122  -0.134
    1UNL    H17   46  -0.042   0.138   0.175
    1UNL    H18   47  -0.145   0.278   0.049
    1UNL    H19   48  -0.276   0.426  -0.266
    1UNL    H20   49  -0.142   0.287  -0.377
    1UNL    H21   50   0.097   0.005  -0.383
    1UNL    H22   51   0.109   0.005  -0.161
   0.00000   0.00000   0.00000   0.00000   0.00000   0.00000   0.00000   0.00000   0.00000
Generated with MDTraj, t= 62.0
 51
    1UNL     C1    1   0.223   0.204   0.071
    1UNL     C2    2   0.168   0.074   0.130
    1UNL     C3    3   0.186   0.063   0.283
    1UNL     C4    4   0.246  -0.054   0.067
    1UNL     C5    5   0.376  -0.068   0.086
    1UNL     C6    6   0.442  -0.189   0.050
    1UNL     C7    7   0.377  -0.276  -0.031
    1UNL     O1    8   0.448  -0.391  -0.077
    1UNL     C8    9   0.242  -0.260  -0.062
    1UNL     C9   10   0.175  -0.150  -0.004
    1UNL     O2   11   0.034  -0.149  -0.024
    1UNL    C10   12  -0.034  -0.080   0.087
    1UNL    C11   13  -0.182  -0.092   0.101
    1UNL    C12   14  -0.243  -0.088   0.228
    1UNL    C13   15  -0.381  -0.089   0.243
    1UNL    C14   16  -0.466  -0.102   0.130
    1UNL     O3   17  -0.603  -0.115   0.147
    1UNL    C15   18  -0.404  -0.113   0.005
    1UNL    C16   19  -0.267  -0.105  -0.011
    1UNL     O4   20  -0.212  -0.112  -0.142
    1UNL    C17   21   0.020   0.068   0.088
    1UNL    C18   22  -0.011   0.145  -0.043
    1UNL    C19   23  -0.099   0.256  -0.038
    1UNL    C20   24  -0.148   0.312  -0.161
    1UNL     O5   25  -0.225   0.419  -0.154
    1UNL    C21   26  -0.119   0.252  -0.284
    1UNL    C22   27  -0.030   0.143  -0.288
    1UNL     O6   28  -0.017   0.074  -0.412
    1UNL    C23   29   0.025   0.088  -0.166
    1UNL     H1   30   0.326   0.216   0.086
    1UNL     H2   31   0.203   0.206  -0.033
    1UNL     H3   32   0.174   0.285   0.120
    1UNL     H4   33   0.109   0.140   0.323
    1UNL     H5   34   0.153  -0.036   0.316
    1UNL     H6   35   0.290   0.082   0.305
    1UNL     H7   36   0.434   0.011   0.126
    1UNL     H8   37   0.546  -0.213   0.069
    1UNL     H9   38   0.536  -0.410  -0.031
    1UNL    H10   39   0.183  -0.331  -0.125
    1UNL    H11   40  -0.014  -0.132   0.181
    1UNL    H12   41  -0.182  -0.062   0.316
    1UNL    H13   42  -0.420  -0.082   0.340
    1UNL    H14   43  -0.643  -0.128   0.056
    1UNL    H15   44  -0.455  -0.144  -0.083
    1UNL    H16   45  -0.115  -0.094  -0.139
    1UNL    H17   46  -0.047   0.117   0.166
    1UNL    H18   47  -0.121   0.302   0.051
    1UNL    H19   48  -0.244   0.439  -0.251
    1UNL    H20   49  -0.173   0.282  -0.371
    1UNL    H21   50   0.039  -0.001  -0.399
    1UNL    H22   51   0.077  -0.001  -0.165
   0.00000   0.00000   0.00000   0.00000   0.00000   0.00000   0.00000   0.00000   0.00000
Generated with MDTraj, t= 63.0
 51
    1UNL     C1    1   0.219   0.199   0.030
    1UNL     C2    2   0.168   0.074   0.112
    1UNL     C3    3   0.202   0.102   0.269
    1UNL     C4    4   0.243  -0.052   0.063
    1UNL     C5    5   0.377  -0.055   0.049
    1UNL     C6    6   0.449  -0.174   0.014
    1UNL     C7    7   0.382  -0.295  -0.014
    1UNL     O1    8   0.450  -0.413  -0.042
    1UNL     C8    9   0.244  -0.287  -0.025
    1UNL     C9   10   0.171  -0.167   0.019
    1UNL     O2   11   0.033  -0.166   0.006
    1UNL    C10   12  -0.029  -0.080   0.097
    1UNL    C11   13  -0.183  -0.099   0.100
    1UNL    C12   14  -0.243  -0.098   0.224
    1UNL    C13   15  -0.379  -0.105   0.233
    1UNL    C14   16  -0.458  -0.106   0.118
    1UNL     O3   17  -0.601  -0.114   0.129
    1UNL    C15   18  -0.400  -0.105  -0.007
    1UNL    C16   19  -0.265  -0.111  -0.013
    1UNL     O4   20  -0.206  -0.130  -0.141
    1UNL    C17   21   0.012   0.061   0.084
    1UNL    C18   22  -0.039   0.131  -0.043
    1UNL    C19   23  -0.113   0.248  -0.036
    1UNL    C20   24  -0.147   0.320  -0.146
    1UNL     O5   25  -0.212   0.443  -0.128
    1UNL    C21   26  -0.112   0.271  -0.271
    1UNL    C22   27  -0.043   0.151  -0.286
    1UNL     O6   28  -0.009   0.112  -0.412
    1UNL    C23   29  -0.009   0.084  -0.173
    1UNL     H1   30   0.321   0.208   0.055
    1UNL     H2   31   0.212   0.190  -0.075
    1UNL     H3   32   0.176   0.292   0.061
    1UNL     H4   33   0.172   0.210   0.292
    1UNL     H5   34   0.133   0.046   0.335
    1UNL     H6   35   0.303   0.078   0.297
    1UNL     H7   36   0.437   0.035   0.077
    1UNL     H8   37   0.556  -0.158  -0.004
    1UNL     H9   38   0.545  -0.382  -0.019
    1UNL    H10   39   0.190  -0.374  -0.034
    1UNL    H11   40   0.013  -0.109   0.195
    1UNL    H12   41  -0.181  -0.080   0.307
    1UNL    H13   42  -0.430  -0.071   0.324
    1UNL    H14   43  -0.634  -0.136   0.036
    1UNL    H15   44  -0.466  -0.109  -0.092
    1UNL    H16   45  -0.109  -0.126  -0.127
    1UNL    H17   46  -0.031   0.131   0.162
    1UNL    H18   47  -0.142   0.291   0.063
    1UNL    H19   48  -0.204   0.503  -0.206
    1UNL    H20   49  -0.172   0.310  -0.355
    1UNL    H21   50   0.036   0.029  -0.415
    1UNL    H22   51   0.044  -0.014  -0.187
   0.00000   0.00000   0.00000   0.00000   0.00000   0.00000   0.00000   0.00000   0.00000
Generated with MDTraj, t= 64.0
 51
    1UNL     C1    1   0.219   0.193  -0.004
    1UNL     C2    2   0.172   0.079   0.087
    1UNL     C3    3   0.223   0.108   0.228
    1UNL     C4    4   0.240  -0.052   0.046
    1UNL     C5    5   0.381  -0.056   0.044
    1UNL     C6    6   0.445  -0.175   0.017
    1UNL     C7    7   0.381  -0.292  -0.011
    1UNL     O1    8   0.453  -0.410  -0.035
    1UNL     C8    9   0.240  -0.289  -0.009
    1UNL     C9   10   0.164  -0.171   0.013
    1UNL     O2   11   0.024  -0.173   0.025
    1UNL    C10   12  -0.037  -0.080   0.116
    1UNL    C11   13  -0.185  -0.093   0.109
    1UNL    C12   14  -0.258  -0.082   0.229
    1UNL    C13   15  -0.395  -0.090   0.228
    1UNL    C14   16  -0.465  -0.110   0.108
    1UNL     O3   17  -0.604  -0.100   0.103
    1UNL    C15   18  -0.387  -0.141  -0.003
    1UNL    C16   19  -0.250  -0.137  -0.010
    1UNL     O4   20  -0.195  -0.167  -0.134
    1UNL    C17   21   0.013   0.058   0.084
    1UNL    C18   22  -0.045   0.133  -0.041
    1UNL    C19   23  -0.111   0.257  -0.028
    1UNL    C20   24  -0.145   0.332  -0.136
    1UNL     O5   25  -0.219   0.446  -0.104
    1UNL    C21   26  -0.103   0.285  -0.261
    1UNL    C22   27  -0.042   0.164  -0.279
    1UNL     O6   28   0.004   0.127  -0.402
    1UNL    C23   29  -0.027   0.084  -0.170
    1UNL     H1   30   0.319   0.226   0.017
    1UNL     H2   31   0.211   0.161  -0.104
    1UNL     H3   32   0.154   0.277   0.008
    1UNL     H4   33   0.152   0.163   0.292
    1UNL     H5   34   0.251   0.021   0.292
    1UNL     H6   35   0.317   0.167   0.223
    1UNL     H7   36   0.451   0.022   0.054
    1UNL     H8   37   0.549  -0.180   0.020
    1UNL     H9   38   0.549  -0.396  -0.051
    1UNL    H10   39   0.174  -0.378  -0.030
    1UNL    H11   40  -0.008  -0.113   0.218
    1UNL    H12   41  -0.202  -0.045   0.317
    1UNL    H13   42  -0.445  -0.057   0.317
    1UNL    H14   43  -0.630  -0.143   0.015
    1UNL    H15   44  -0.448  -0.167  -0.089
    1UNL    H16   45  -0.102  -0.183  -0.112
    1UNL    H17   46  -0.020   0.131   0.161
    1UNL    H18   47  -0.132   0.296   0.068
    1UNL    H19   48  -0.221   0.522  -0.163
    1UNL    H20   49  -0.107   0.338  -0.351
    1UNL    H21   50   0.021   0.036  -0.390
    1UNL    H22   51   0.035  -0.001  -0.181
   0.00000   0.00000   0.00000   0.00000   0.00000   0.00000   0.00000   0.00000   0.00000
Generated with MDTraj, t= 65.0
 51
    1UNL     C1    1   0.237   0.191   0.007
    1UNL     C2    2   0.180   0.077   0.096
    1UNL     C3    3   0.208   0.113   0.245
    1UNL     C4    4   0.250  -0.053   0.059
    1UNL     C5    5   0.390  -0.060   0.060
    1UNL     C6    6   0.451  -0.178   0.019
    1UNL     C7    7   0.375  -0.293  -0.022
    1UNL     O1    8   0.444  -0.418  -0.050
    1UNL     C8    9   0.236  -0.283  -0.021
    1UNL     C9   10   0.175  -0.165   0.019
    1UNL     O2   11   0.032  -0.166   0.014
    1UNL    C10   12  -0.027  -0.078   0.105
    1UNL    C11   13  -0.183  -0.086   0.096
    1UNL    C12   14  -0.250  -0.034   0.204
    1UNL    C13   15  -0.387  -0.035   0.199
    1UNL    C14   16  -0.461  -0.093   0.090
    1UNL     O3   17  -0.596  -0.112   0.104
    1UNL    C15   18  -0.391  -0.160  -0.009
    1UNL    C16   19  -0.253  -0.151  -0.012
    1UNL     O4   20  -0.196  -0.205  -0.124
    1UNL    C17   21   0.019   0.063   0.085
    1UNL    C18   22  -0.045   0.132  -0.037
    1UNL    C19   23  -0.113   0.251  -0.013
    1UNL    C20   24  -0.162   0.320  -0.124
    1UNL     O5   25  -0.222   0.442  -0.095
    1UNL    C21   26  -0.128   0.283  -0.256
    1UNL    C22   27  -0.059   0.159  -0.273
    1UNL     O6   28  -0.014   0.118  -0.401
    1UNL    C23   29  -0.013   0.090  -0.162
    1UNL     H1   30   0.321   0.239   0.054
    1UNL     H2   31   0.255   0.165  -0.095
    1UNL     H3   32   0.156   0.259  -0.004
    1UNL     H4   33   0.199   0.214   0.277
    1UNL     H5   34   0.156   0.060   0.328
    1UNL     H6   35   0.319   0.082   0.261
    1UNL     H7   36   0.439   0.036   0.077
    1UNL     H8   37   0.554  -0.207   0.041
    1UNL     H9   38   0.535  -0.400  -0.073
    1UNL    H10   39   0.189  -0.374  -0.034
    1UNL    H11   40  -0.006  -0.115   0.209
    1UNL    H12   41  -0.190   0.011   0.280
    1UNL    H13   42  -0.442   0.010   0.280
    1UNL    H14   43  -0.624  -0.187   0.047
    1UNL    H15   44  -0.445  -0.203  -0.089
    1UNL    H16   45  -0.102  -0.218  -0.103
    1UNL    H17   46  -0.016   0.125   0.169
    1UNL    H18   47  -0.148   0.284   0.085
    1UNL    H19   48  -0.199   0.501  -0.168
    1UNL    H20   49  -0.135   0.356  -0.341
    1UNL    H21   50   0.012   0.026  -0.407
    1UNL    H22   51   0.037  -0.004  -0.175
   0.00000   0.00000   0.00000   0.00000   0.00000   0.00000   0.00000   0.00000   0.00000
Generated with MDTraj, t= 66.0
 51
    1UNL     C1    1   0.256   0.198   0.044
    1UNL     C2    2   0.192   0.075   0.119
    1UNL     C3    3   0.211   0.086   0.271
    1UNL     C4    4   0.257  -0.060   0.076
    1UNL     C5    5   0.394  -0.079   0.091
    1UNL     C6    6   0.452  -0.188   0.045
    1UNL     C7    7   0.381  -0.291  -0.030
    1UNL     O1    8   0.447  -0.402  -0.076
    1UNL     C8    9   0.246  -0.269  -0.052
    1UNL     C9   10   0.184  -0.157   0.001
    1UNL     O2   11   0.040  -0.154  -0.007
    1UNL    C10   12  -0.025  -0.073   0.087
    1UNL    C11   13  -0.181  -0.085   0.084
    1UNL    C12   14  -0.252  -0.013   0.179
    1UNL    C13   15  -0.387  -0.004   0.176
    1UNL    C14   16  -0.465  -0.083   0.093
    1UNL     O3   17  -0.610  -0.098   0.098
    1UNL    C15   18  -0.395  -0.156  -0.003
    1UNL    C16   19  -0.255  -0.163  -0.006
    1UNL     O4   20  -0.198  -0.246  -0.104
    1UNL    C17   21   0.035   0.076   0.086
    1UNL    C18   22  -0.021   0.147  -0.035
    1UNL    C19   23  -0.091   0.266  -0.016
    1UNL    C20   24  -0.160   0.325  -0.130
    1UNL     O5   25  -0.246   0.431  -0.107
    1UNL    C21   26  -0.152   0.263  -0.249
    1UNL    C22   27  -0.065   0.153  -0.270
    1UNL     O6   28  -0.062   0.096  -0.399
    1UNL    C23   29  -0.001   0.089  -0.157
    1UNL     H1   30   0.362   0.190   0.032
    1UNL     H2   31   0.200   0.220  -0.047
    1UNL     H3   32   0.232   0.294   0.083
    1UNL     H4   33   0.150   0.166   0.306
    1UNL     H5   34   0.166  -0.004   0.319
    1UNL     H6   35   0.320   0.091   0.306
    1UNL     H7   36   0.438   0.000   0.150
    1UNL     H8   37   0.559  -0.183   0.048
    1UNL     H9   38   0.539  -0.381  -0.084
    1UNL    H10   39   0.183  -0.348  -0.100
    1UNL    H11   40  -0.016  -0.124   0.187
    1UNL    H12   41  -0.192   0.041   0.251
    1UNL    H13   42  -0.441   0.067   0.241
    1UNL    H14   43  -0.638  -0.184   0.065
    1UNL    H15   44  -0.445  -0.216  -0.079
    1UNL    H16   45  -0.102  -0.244  -0.083
    1UNL    H17   46  -0.006   0.132   0.168
    1UNL    H18   47  -0.109   0.318   0.078
    1UNL    H19   48  -0.259   0.479  -0.191
    1UNL    H20   49  -0.185   0.319  -0.331
    1UNL    H21   50  -0.032   0.002  -0.391
    1UNL    H22   51   0.058  -0.006  -0.163
   0.00000   0.00000   0.00000   0.00000   0.00000   0.00000   0.00000   0.00000   0.00000
Generated with MDTraj, t= 67.0
 51
    1UNL     C1    1   0.244   0.200   0.069
    1UNL     C2    2   0.186   0.069   0.129
    1UNL     C3    3   0.193   0.068   0.286
    1UNL     C4    4   0.250  -0.054   0.074
    1UNL     C5    5   0.386  -0.083   0.103
    1UNL     C6    6   0.448  -0.184   0.036
    1UNL     C7    7   0.380  -0.280  -0.042
    1UNL     O1    8   0.441  -0.388  -0.099
    1UNL     C8    9   0.241  -0.254  -0.067
    1UNL     C9   10   0.178  -0.148  -0.005
    1UNL     O2   11   0.038  -0.143  -0.019
    1UNL    C10   12  -0.023  -0.075   0.087
    1UNL    C11   13  -0.174  -0.084   0.094
    1UNL    C12   14  -0.241   0.006   0.173
    1UNL    C13   15  -0.379   0.013   0.161
    1UNL    C14   16  -0.451  -0.077   0.083
    1UNL     O3   17  -0.589  -0.068   0.074
    1UNL    C15   18  -0.383  -0.169   0.005
    1UNL    C16   19  -0.243  -0.174   0.009
    1UNL     O4   20  -0.186  -0.262  -0.083
    1UNL    C17   21   0.023   0.071   0.096
    1UNL    C18   22  -0.016   0.144  -0.029
    1UNL    C19   23  -0.084   0.258  -0.019
    1UNL    C20   24  -0.157   0.317  -0.125
    1UNL     O5   25  -0.236   0.431  -0.116
    1UNL    C21   26  -0.153   0.252  -0.248
    1UNL    C22   27  -0.081   0.136  -0.266
    1UNL     O6   28  -0.078   0.078  -0.389
    1UNL    C23   29  -0.007   0.089  -0.152
    1UNL     H1   30   0.336   0.206   0.122
    1UNL     H2   31   0.264   0.199  -0.039
    1UNL     H3   32   0.188   0.291   0.062
    1UNL     H4   33   0.117   0.144   0.316
    1UNL     H5   34   0.166  -0.032   0.325
    1UNL     H6   35   0.297   0.089   0.316
    1UNL     H7   36   0.445  -0.011   0.159
    1UNL     H8   37   0.555  -0.209   0.046
    1UNL     H9   38   0.540  -0.391  -0.102
    1UNL    H10   39   0.184  -0.335  -0.105
    1UNL    H11   40   0.010  -0.129   0.178
    1UNL    H12   41  -0.184   0.064   0.246
    1UNL    H13   42  -0.436   0.084   0.214
    1UNL    H14   43  -0.624  -0.151   0.045
    1UNL    H15   44  -0.437  -0.226  -0.066
    1UNL    H16   45  -0.088  -0.253  -0.077
    1UNL    H17   46  -0.017   0.130   0.173
    1UNL    H18   47  -0.087   0.302   0.080
    1UNL    H19   48  -0.261   0.460  -0.208
    1UNL    H20   49  -0.227   0.273  -0.329
    1UNL    H21   50  -0.047  -0.019  -0.382
    1UNL    H22   51   0.043  -0.001  -0.167
   0.00000   0.00000   0.00000   0.00000   0.00000   0.00000   0.00000   0.00000   0.00000
Generated with MDTraj, t= 68.0
 51
    1UNL     C1    1   0.246   0.195   0.065
    1UNL     C2    2   0.180   0.072   0.122
    1UNL     C3    3   0.205   0.066   0.269
    1UNL     C4    4   0.254  -0.054   0.066
    1UNL     C5    5   0.396  -0.056   0.064
    1UNL     C6    6   0.461  -0.161   0.007
    1UNL     C7    7   0.388  -0.261  -0.060
    1UNL     O1    8   0.451  -0.373  -0.117
    1UNL     C8    9   0.250  -0.265  -0.040
    1UNL     C9   10   0.177  -0.161   0.008
    1UNL     O2   11   0.035  -0.164   0.011
    1UNL    C10   12  -0.034  -0.081   0.111
    1UNL    C11   13  -0.186  -0.074   0.095
    1UNL    C12   14  -0.262   0.013   0.172
    1UNL    C13   15  -0.402   0.007   0.159
    1UNL    C14   16  -0.469  -0.072   0.065
    1UNL     O3   17  -0.605  -0.061   0.049
    1UNL    C15   18  -0.391  -0.164  -0.004
    1UNL    C16   19  -0.252  -0.173   0.010
    1UNL     O4   20  -0.190  -0.277  -0.049
    1UNL    C17   21   0.021   0.068   0.110
    1UNL    C18   22  -0.019   0.134  -0.020
    1UNL    C19   23  -0.092   0.250  -0.011
    1UNL    C20   24  -0.145   0.317  -0.117
    1UNL     O5   25  -0.209   0.442  -0.112
    1UNL    C21   26  -0.127   0.252  -0.244
    1UNL    C22   27  -0.075   0.126  -0.261
    1UNL     O6   28  -0.068   0.074  -0.388
    1UNL    C23   29  -0.026   0.069  -0.147
    1UNL     H1   30   0.351   0.197   0.080
    1UNL     H2   31   0.214   0.204  -0.038
    1UNL     H3   32   0.200   0.286   0.098
    1UNL     H4   33   0.183   0.173   0.309
    1UNL     H5   34   0.135  -0.007   0.318
    1UNL     H6   35   0.305   0.031   0.284
    1UNL     H7   36   0.454   0.023   0.107
    1UNL     H8   37   0.567  -0.165   0.015
    1UNL     H9   38   0.549  -0.347  -0.116
    1UNL    H10   39   0.203  -0.349  -0.086
    1UNL    H11   40  -0.019  -0.140   0.202
    1UNL    H12   41  -0.219   0.067   0.251
    1UNL    H13   42  -0.454   0.053   0.246
    1UNL    H14   43  -0.636  -0.124  -0.016
    1UNL    H15   44  -0.442  -0.221  -0.081
    1UNL    H16   45  -0.093  -0.264  -0.036
    1UNL    H17   46  -0.012   0.123   0.191
    1UNL    H18   47  -0.086   0.289   0.089
    1UNL    H19   48  -0.234   0.478  -0.203
    1UNL    H20   49  -0.174   0.293  -0.330
    1UNL    H21   50  -0.040  -0.026  -0.387
    1UNL    H22   51   0.033  -0.022  -0.163
   0.00000   0.00000   0.00000   0.00000   0.00000   0.00000   0.00000   0.00000   0.00000
Generated with MDTraj, t= 69.0
 51
    1UNL     C1    1   0.218   0.211   0.055
    1UNL     C2    2   0.168   0.079   0.123
    1UNL     C3    3   0.204   0.075   0.274
    1UNL     C4    4   0.240  -0.041   0.053
    1UNL     C5    5   0.373  -0.031   0.022
    1UNL     C6    6   0.440  -0.136  -0.037
    1UNL     C7    7   0.371  -0.256  -0.060
    1UNL     O1    8   0.433  -0.365  -0.127
    1UNL     C8    9   0.238  -0.267  -0.035
    1UNL     C9   10   0.175  -0.163   0.031
    1UNL     O2   11   0.039  -0.191   0.060
    1UNL    C10   12  -0.034  -0.088   0.121
    1UNL    C11   13  -0.187  -0.093   0.096
    1UNL    C12   14  -0.258   0.003   0.167
    1UNL    C13   15  -0.397   0.012   0.150
    1UNL    C14   16  -0.464  -0.080   0.068
    1UNL     O3   17  -0.601  -0.049   0.037
    1UNL    C15   18  -0.388  -0.176  -0.000
    1UNL    C16   19  -0.249  -0.185   0.010
    1UNL     O4   20  -0.175  -0.279  -0.064
    1UNL    C17   21   0.013   0.063   0.117
    1UNL    C18   22  -0.039   0.118  -0.006
    1UNL    C19   23  -0.097   0.247  -0.005
    1UNL    C20   24  -0.129   0.315  -0.119
    1UNL     O5   25  -0.166   0.452  -0.112
    1UNL    C21   26  -0.101   0.259  -0.247
    1UNL    C22   27  -0.056   0.124  -0.248
    1UNL     O6   28  -0.047   0.069  -0.377
    1UNL    C23   29  -0.030   0.050  -0.134
    1UNL     H1   30   0.322   0.220   0.035
    1UNL     H2   31   0.170   0.227  -0.043
    1UNL     H3   32   0.186   0.288   0.119
    1UNL     H4   33   0.144   0.148   0.342
    1UNL     H5   34   0.189  -0.025   0.319
    1UNL     H6   35   0.311   0.089   0.286
    1UNL     H7   36   0.419   0.065   0.030
    1UNL     H8   37   0.541  -0.128  -0.073
    1UNL     H9   38   0.534  -0.347  -0.131
    1UNL    H10   39   0.185  -0.364  -0.039
    1UNL    H11   40  -0.016  -0.124   0.222
    1UNL    H12   41  -0.207   0.061   0.250
    1UNL    H13   42  -0.454   0.080   0.206
    1UNL    H14   43  -0.629  -0.100  -0.041
    1UNL    H15   44  -0.434  -0.244  -0.070
    1UNL    H16   45  -0.085  -0.279  -0.020
    1UNL    H17   46  -0.014   0.114   0.203
    1UNL    H18   47  -0.104   0.303   0.087
    1UNL    H19   48  -0.199   0.478  -0.202
    1UNL    H20   49  -0.132   0.316  -0.332
    1UNL    H21   50  -0.007  -0.025  -0.359
    1UNL    H22   51   0.019  -0.047  -0.136
   0.00000   0.00000   0.00000   0.00000   0.00000   0.00000   0.00000   0.00000   0.00000
Generated with MDTraj, t= 70.0
 51
    1UNL     C1    1   0.224   0.210   0.084
    1UNL     C2    2   0.174   0.072   0.137
    1UNL     C3    3   0.213   0.053   0.281
    1UNL     C4    4   0.233  -0.039   0.043
    1UNL     C5    5   0.356  -0.024  -0.013
    1UNL     C6    6   0.424  -0.134  -0.062
    1UNL     C7    7   0.358  -0.250  -0.081
    1UNL     O1    8   0.417  -0.355  -0.138
    1UNL     C8    9   0.229  -0.264  -0.033
    1UNL     C9   10   0.159  -0.157   0.029
    1UNL     O2   11   0.038  -0.181   0.085
    1UNL    C10   12  -0.040  -0.073   0.145
    1UNL    C11   13  -0.191  -0.086   0.124
    1UNL    C12   14  -0.278  -0.012   0.204
    1UNL    C13   15  -0.412  -0.018   0.167
    1UNL    C14   16  -0.462  -0.089   0.056
    1UNL     O3   17  -0.599  -0.077   0.014
    1UNL    C15   18  -0.375  -0.161  -0.020
    1UNL    C16   19  -0.242  -0.166   0.016
    1UNL     O4   20  -0.166  -0.263  -0.047
    1UNL    C17   21   0.013   0.067   0.122
    1UNL    C18   22  -0.041   0.122  -0.009
    1UNL    C19   23  -0.081   0.255  -0.008
    1UNL    C20   24  -0.110   0.322  -0.133
    1UNL     O5   25  -0.154   0.450  -0.136
    1UNL    C21   26  -0.103   0.253  -0.250
    1UNL    C22   27  -0.054   0.121  -0.251
    1UNL     O6   28  -0.031   0.052  -0.377
    1UNL    C23   29  -0.015   0.056  -0.131
    1UNL     H1   30   0.308   0.245   0.140
    1UNL     H2   31   0.267   0.195  -0.014
    1UNL     H3   32   0.149   0.285   0.094
    1UNL     H4   33   0.150   0.107   0.354
    1UNL     H5   34   0.209  -0.054   0.317
    1UNL     H6   35   0.321   0.080   0.297
    1UNL     H7   36   0.415   0.068  -0.011
    1UNL     H8   37   0.514  -0.118  -0.120
    1UNL     H9   38   0.516  -0.341  -0.149
    1UNL    H10   39   0.176  -0.354  -0.040
    1UNL    H11   40  -0.033  -0.090   0.251
    1UNL    H12   41  -0.251   0.028   0.296
    1UNL    H13   42  -0.490   0.032   0.228
    1UNL    H14   43  -0.605  -0.114  -0.079
    1UNL    H15   44  -0.401  -0.220  -0.105
    1UNL    H16   45  -0.073  -0.251  -0.014
    1UNL    H17   46  -0.018   0.123   0.204
    1UNL    H18   47  -0.100   0.304   0.086
    1UNL    H19   48  -0.195   0.472  -0.222
    1UNL    H20   49  -0.125   0.309  -0.344
    1UNL    H21   50   0.028  -0.028  -0.358
    1UNL    H22   51   0.020  -0.045  -0.137
   0.00000   0.00000   0.00000   0.00000   0.00000   0.00000   0.00000   0.00000   0.00000
Generated with MDTraj, t= 71.0
 51
    1UNL     C1    1   0.224   0.222   0.130
    1UNL     C2    2   0.172   0.072   0.154
    1UNL     C3    3   0.209   0.042   0.299
    1UNL     C4    4   0.232  -0.036   0.058
    1UNL     C5    5   0.347  -0.020  -0.010
    1UNL     C6    6   0.406  -0.127  -0.083
    1UNL     C7    7   0.338  -0.244  -0.094
    1UNL     O1    8   0.373  -0.347  -0.178
    1UNL     C8    9   0.224  -0.258  -0.018
    1UNL     C9   10   0.164  -0.158   0.060
    1UNL     O2   11   0.041  -0.184   0.106
    1UNL    C10   12  -0.040  -0.073   0.162
    1UNL    C11   13  -0.190  -0.085   0.122
    1UNL    C12   14  -0.279  -0.005   0.196
    1UNL    C13   15  -0.410  -0.009   0.159
    1UNL    C14   16  -0.460  -0.089   0.053
    1UNL     O3   17  -0.597  -0.104   0.035
    1UNL    C15   18  -0.365  -0.154  -0.026
    1UNL    C16   19  -0.226  -0.155   0.003
    1UNL     O4   20  -0.140  -0.220  -0.087
    1UNL    C17   21   0.017   0.065   0.129
    1UNL    C18   22  -0.017   0.129  -0.010
    1UNL    C19   23  -0.077   0.253  -0.026
    1UNL    C20   24  -0.107   0.314  -0.151
    1UNL     O5   25  -0.161   0.441  -0.154
    1UNL    C21   26  -0.091   0.232  -0.261
    1UNL    C22   27  -0.046   0.102  -0.256
    1UNL     O6   28  -0.037   0.027  -0.365
    1UNL    C23   29  -0.005   0.057  -0.125
    1UNL     H1   30   0.327   0.222   0.097
    1UNL     H2   31   0.183   0.270   0.042
    1UNL     H3   32   0.229   0.277   0.222
    1UNL     H4   33   0.160   0.111   0.365
    1UNL     H5   34   0.156  -0.054   0.324
    1UNL     H6   35   0.324   0.032   0.320
    1UNL     H7   36   0.380   0.081  -0.028
    1UNL     H8   37   0.503  -0.109  -0.126
    1UNL     H9   38   0.463  -0.332  -0.214
    1UNL    H10   39   0.176  -0.359  -0.016
    1UNL    H11   40  -0.041  -0.085   0.270
    1UNL    H12   41  -0.248   0.057   0.284
    1UNL    H13   42  -0.480   0.033   0.225
    1UNL    H14   43  -0.616  -0.150  -0.054
    1UNL    H15   44  -0.405  -0.204  -0.114
    1UNL    H16   45  -0.046  -0.213  -0.062
    1UNL    H17   46  -0.028   0.130   0.196
    1UNL    H18   47  -0.102   0.312   0.061
    1UNL    H19   48  -0.210   0.445  -0.237
    1UNL    H20   49  -0.079   0.279  -0.353
    1UNL    H21   50   0.011  -0.058  -0.348
    1UNL    H22   51   0.017  -0.046  -0.126
   0.00000   0.00000   0.00000   0.00000   0.00000   0.00000   0.00000   0.00000   0.00000
Generated with MDTraj, t= 72.0
 51
    1UNL     C1    1   0.250   0.216   0.140
    1UNL     C2    2   0.176   0.075   0.161
    1UNL     C3    3   0.208   0.043   0.310
    1UNL     C4    4   0.235  -0.037   0.074
    1UNL     C5    5   0.346  -0.016  -0.001
    1UNL     C6    6   0.391  -0.117  -0.091
    1UNL     C7    7   0.312  -0.229  -0.117
    1UNL     O1    8   0.353  -0.337  -0.202
    1UNL     C8    9   0.197  -0.241  -0.044
    1UNL     C9   10   0.161  -0.147   0.047
    1UNL     O2   11   0.044  -0.173   0.118
    1UNL    C10   12  -0.041  -0.060   0.169
    1UNL    C11   13  -0.187  -0.074   0.126
    1UNL    C12   14  -0.287  -0.011   0.201
    1UNL    C13   15  -0.420  -0.025   0.163
    1UNL    C14   16  -0.465  -0.095   0.047
    1UNL     O3   17  -0.599  -0.112   0.019
    1UNL    C15   18  -0.364  -0.151  -0.035
    1UNL    C16   19  -0.229  -0.138   0.003
    1UNL     O4   20  -0.133  -0.195  -0.084
    1UNL    C17   21   0.020   0.074   0.129
    1UNL    C18   22  -0.010   0.130  -0.008
    1UNL    C19   23  -0.064   0.253  -0.027
    1UNL    C20   24  -0.112   0.293  -0.150
    1UNL     O5   25  -0.159   0.426  -0.159
    1UNL    C21   26  -0.092   0.207  -0.260
    1UNL    C22   27  -0.028   0.087  -0.245
    1UNL     O6   28  -0.023  -0.005  -0.343
    1UNL    C23   29   0.016   0.056  -0.118
    1UNL     H1   30   0.359   0.226   0.157
    1UNL     H2   31   0.246   0.248   0.037
    1UNL     H3   32   0.216   0.285   0.215
    1UNL     H4   33   0.176   0.121   0.378
    1UNL     H5   34   0.141  -0.045   0.331
    1UNL     H6   35   0.319   0.015   0.320
    1UNL     H7   36   0.388   0.084   0.004
    1UNL     H8   37   0.480  -0.104  -0.152
    1UNL     H9   38   0.448  -0.344  -0.212
    1UNL    H10   39   0.135  -0.321  -0.065
    1UNL    H11   40  -0.041  -0.082   0.277
    1UNL    H12   41  -0.253   0.039   0.288
    1UNL    H13   42  -0.491   0.032   0.226
    1UNL    H14   43  -0.610  -0.151  -0.074
    1UNL    H15   44  -0.385  -0.198  -0.128
    1UNL    H16   45  -0.056  -0.209  -0.028
    1UNL    H17   46  -0.022   0.147   0.190
    1UNL    H18   47  -0.085   0.314   0.060
    1UNL    H19   48  -0.219   0.446  -0.232
    1UNL    H20   49  -0.145   0.222  -0.356
    1UNL    H21   50   0.042  -0.075  -0.328
    1UNL    H22   51   0.050  -0.051  -0.120
   0.00000   0.00000   0.00000   0.00000   0.00000   0.00000   0.00000   0.00000   0.00000
Generated with MDTraj, t= 73.0
 51
    1UNL     C1    1   0.242   0.212   0.128
    1UNL     C2    2   0.178   0.072   0.155
    1UNL     C3    3   0.200   0.041   0.310
    1UNL     C4    4   0.230  -0.038   0.063
    1UNL     C5    5   0.352  -0.022  -0.004
    1UNL     C6    6   0.394  -0.114  -0.090
    1UNL     C7    7   0.318  -0.232  -0.108
    1UNL     O1    8   0.338  -0.310  -0.217
    1UNL     C8    9   0.211  -0.255  -0.025
    1UNL     C9   10   0.160  -0.160   0.056
    1UNL     O2   11   0.048  -0.186   0.136
    1UNL    C10   12  -0.045  -0.068   0.168
    1UNL    C11   13  -0.187  -0.081   0.127
    1UNL    C12   14  -0.281  -0.020   0.204
    1UNL    C13   15  -0.413  -0.020   0.171
    1UNL    C14   16  -0.455  -0.079   0.048
    1UNL     O3   17  -0.594  -0.088   0.013
    1UNL    C15   18  -0.358  -0.135  -0.041
    1UNL    C16   19  -0.226  -0.143   0.006
    1UNL     O4   20  -0.129  -0.218  -0.062
    1UNL    C17   21   0.021   0.066   0.125
    1UNL    C18   22  -0.024   0.130  -0.008
    1UNL    C19   23  -0.088   0.255  -0.025
    1UNL    C20   24  -0.108   0.301  -0.156
    1UNL     O5   25  -0.177   0.422  -0.165
    1UNL    C21   26  -0.084   0.217  -0.266
    1UNL    C22   27  -0.029   0.089  -0.246
    1UNL     O6   28  -0.003   0.002  -0.353
    1UNL    C23   29   0.000   0.048  -0.120
    1UNL     H1   30   0.341   0.235   0.170
    1UNL     H2   31   0.264   0.208   0.024
    1UNL     H3   32   0.178   0.291   0.166
    1UNL     H4   33   0.140   0.098   0.388
    1UNL     H5   34   0.184  -0.067   0.327
    1UNL     H6   35   0.309   0.065   0.316
    1UNL     H7   36   0.413   0.061   0.017
    1UNL     H8   37   0.478  -0.086  -0.149
    1UNL     H9   38   0.425  -0.294  -0.252
    1UNL    H10   39   0.176  -0.359  -0.012
    1UNL    H11   40  -0.053  -0.083   0.279
    1UNL    H12   41  -0.249   0.025   0.298
    1UNL    H13   42  -0.490   0.026   0.228
    1UNL    H14   43  -0.599  -0.121  -0.081
    1UNL    H15   44  -0.398  -0.186  -0.129
    1UNL    H16   45  -0.041  -0.207  -0.022
    1UNL    H17   46  -0.006   0.138   0.196
    1UNL    H18   47  -0.117   0.312   0.060
    1UNL    H19   48  -0.220   0.428  -0.254
    1UNL    H20   49  -0.115   0.244  -0.363
    1UNL    H21   50   0.062  -0.058  -0.322
    1UNL    H22   51   0.080  -0.023  -0.110
   0.00000   0.00000   0.00000   0.00000   0.00000   0.00000   0.00000   0.00000   0.00000
Generated with MDTraj, t= 74.0
 51
    1UNL     C1    1   0.210   0.226   0.110
    1UNL     C2    2   0.170   0.076   0.149
    1UNL     C3    3   0.221   0.059   0.293
    1UNL     C4    4   0.232  -0.034   0.070
    1UNL     C5    5   0.338  -0.006  -0.018
    1UNL     C6    6   0.387  -0.105  -0.091
    1UNL     C7    7   0.323  -0.231  -0.106
    1UNL     O1    8   0.366  -0.337  -0.187
    1UNL     C8    9   0.206  -0.245  -0.033
    1UNL     C9   10   0.160  -0.154   0.054
    1UNL     O2   11   0.038  -0.190   0.117
    1UNL    C10   12  -0.036  -0.083   0.165
    1UNL    C11   13  -0.186  -0.090   0.133
    1UNL    C12   14  -0.276  -0.006   0.201
    1UNL    C13   15  -0.405  -0.003   0.159
    1UNL    C14   16  -0.458  -0.072   0.049
    1UNL     O3   17  -0.582  -0.045   0.002
    1UNL    C15   18  -0.364  -0.156  -0.015
    1UNL    C16   19  -0.228  -0.158   0.017
    1UNL     O4   20  -0.142  -0.237  -0.069
    1UNL    C17   21   0.009   0.061   0.129
    1UNL    C18   22  -0.025   0.103  -0.009
    1UNL    C19   23  -0.092   0.227  -0.016
    1UNL    C20   24  -0.124   0.282  -0.139
    1UNL     O5   25  -0.177   0.408  -0.137
    1UNL    C21   26  -0.085   0.224  -0.257
    1UNL    C22   27  -0.024   0.099  -0.247
    1UNL     O6   28   0.012   0.028  -0.365
    1UNL    C23   29   0.011   0.036  -0.128
    1UNL     H1   30   0.314   0.239   0.139
    1UNL     H2   31   0.225   0.231   0.004
    1UNL     H3   32   0.152   0.298   0.170
    1UNL     H4   33   0.166   0.112   0.383
    1UNL     H5   34   0.218  -0.050   0.319
    1UNL     H6   35   0.325   0.088   0.292
    1UNL     H7   36   0.384   0.094  -0.014
    1UNL     H8   37   0.483  -0.094  -0.145
    1UNL     H9   38   0.453  -0.327  -0.230
    1UNL    H10   39   0.154  -0.337  -0.041
    1UNL    H11   40  -0.029  -0.098   0.276
    1UNL    H12   41  -0.236   0.055   0.282
    1UNL    H13   42  -0.471   0.061   0.216
    1UNL    H14   43  -0.590  -0.084  -0.087
    1UNL    H15   44  -0.394  -0.222  -0.093
    1UNL    H16   45  -0.047  -0.241  -0.038
    1UNL    H17   46  -0.036   0.128   0.194
    1UNL    H18   47  -0.111   0.285   0.077
    1UNL    H19   48  -0.204   0.424  -0.232
    1UNL    H20   49  -0.106   0.273  -0.350
    1UNL    H21   50   0.067  -0.043  -0.336
    1UNL    H22   51   0.041  -0.063  -0.115
   0.00000   0.00000   0.00000   0.00000   0.00000   0.00000   0.00000   0.00000   0.00000
Generated with MDTraj, t= 75.0
 51
    1UNL     C1    1   0.221   0.209   0.103
    1UNL     C2    2   0.174   0.069   0.144
    1UNL     C3    3   0.223   0.049   0.288
    1UNL     C4    4   0.233  -0.049   0.052
    1UNL     C5    5   0.350  -0.016  -0.025
    1UNL     C6    6   0.408  -0.116  -0.095
    1UNL     C7    7   0.357  -0.248  -0.092
    1UNL     O1    8   0.414  -0.347  -0.168
    1UNL     C8    9   0.233  -0.271  -0.028
    1UNL     C9   10   0.167  -0.172   0.039
    1UNL     O2   11   0.038  -0.192   0.094
    1UNL    C10   12  -0.034  -0.086   0.155
    1UNL    C11   13  -0.186  -0.088   0.128
    1UNL    C12   14  -0.272   0.003   0.196
    1UNL    C13   15  -0.403   0.004   0.160
    1UNL    C14   16  -0.453  -0.061   0.044
    1UNL     O3   17  -0.584  -0.040   0.002
    1UNL    C15   18  -0.367  -0.139  -0.028
    1UNL    C16   19  -0.237  -0.160   0.017
    1UNL     O4   20  -0.167  -0.263  -0.035
    1UNL    C17   21   0.013   0.063   0.137
    1UNL    C18   22  -0.035   0.125  -0.001
    1UNL    C19   23  -0.111   0.243  -0.013
    1UNL    C20   24  -0.144   0.303  -0.137
    1UNL     O5   25  -0.209   0.426  -0.154
    1UNL    C21   26  -0.104   0.228  -0.247
    1UNL    C22   27  -0.035   0.107  -0.241
    1UNL     O6   28   0.012   0.049  -0.358
    1UNL    C23   29  -0.011   0.051  -0.114
    1UNL     H1   30   0.327   0.220   0.109
    1UNL     H2   31   0.209   0.211  -0.005
    1UNL     H3   32   0.174   0.283   0.171
    1UNL     H4   33   0.176   0.119   0.365
    1UNL     H5   34   0.171  -0.046   0.321
    1UNL     H6   35   0.330   0.040   0.313
    1UNL     H7   36   0.395   0.082  -0.017
    1UNL     H8   37   0.507  -0.109  -0.130
    1UNL     H9   38   0.493  -0.306  -0.214
    1UNL    H10   39   0.201  -0.373  -0.030
    1UNL    H11   40  -0.037  -0.107   0.263
    1UNL    H12   41  -0.233   0.066   0.271
    1UNL    H13   42  -0.474   0.050   0.227
    1UNL    H14   43  -0.603  -0.077  -0.084
    1UNL    H15   44  -0.409  -0.202  -0.106
    1UNL    H16   45  -0.077  -0.264   0.003
    1UNL    H17   46  -0.025   0.126   0.211
    1UNL    H18   47  -0.133   0.295   0.075
    1UNL    H19   48  -0.237   0.436  -0.251
    1UNL    H20   49  -0.105   0.282  -0.342
    1UNL    H21   50   0.071  -0.030  -0.356
    1UNL    H22   51   0.008  -0.059  -0.106
   0.00000   0.00000   0.00000   0.00000   0.00000   0.00000   0.00000   0.00000   0.00000
Generated with MDTraj, t= 76.0
 51
    1UNL     C1    1   0.224   0.220   0.105
    1UNL     C2    2   0.174   0.068   0.141
    1UNL     C3    3   0.208   0.048   0.294
    1UNL     C4    4   0.246  -0.037   0.052
    1UNL     C5    5   0.375  -0.022  -0.003
    1UNL     C6    6   0.430  -0.134  -0.060
    1UNL     C7    7   0.364  -0.256  -0.076
    1UNL     O1    8   0.410  -0.371  -0.136
    1UNL     C8    9   0.231  -0.264  -0.038
    1UNL     C9   10   0.173  -0.158   0.029
    1UNL     O2   11   0.049  -0.181   0.086
    1UNL    C10   12  -0.033  -0.079   0.143
    1UNL    C11   13  -0.184  -0.080   0.107
    1UNL    C12   14  -0.262   0.016   0.169
    1UNL    C13   15  -0.401   0.023   0.149
    1UNL    C14   16  -0.457  -0.062   0.052
    1UNL     O3   17  -0.596  -0.039   0.014
    1UNL    C15   18  -0.375  -0.157  -0.008
    1UNL    C16   19  -0.239  -0.165   0.010
    1UNL     O4   20  -0.162  -0.256  -0.056
    1UNL    C17   21   0.017   0.063   0.122
    1UNL    C18   22  -0.024   0.113  -0.018
    1UNL    C19   23  -0.094   0.226  -0.011
    1UNL    C20   24  -0.138   0.295  -0.123
    1UNL     O5   25  -0.221   0.399  -0.109
    1UNL    C21   26  -0.119   0.237  -0.250
    1UNL    C22   27  -0.051   0.121  -0.264
    1UNL     O6   28  -0.035   0.061  -0.383
    1UNL    C23   29  -0.000   0.064  -0.139
    1UNL     H1   30   0.330   0.234   0.108
    1UNL     H2   31   0.213   0.234  -0.003
    1UNL     H3   32   0.185   0.297   0.173
    1UNL     H4   33   0.157   0.117   0.362
    1UNL     H5   34   0.182  -0.053   0.339
    1UNL     H6   35   0.321   0.052   0.310
    1UNL     H7   36   0.431   0.062   0.033
    1UNL     H8   37   0.536  -0.136  -0.088
    1UNL     H9   38   0.501  -0.349  -0.177
    1UNL    H10   39   0.182  -0.363  -0.054
    1UNL    H11   40  -0.026  -0.097   0.250
    1UNL    H12   41  -0.213   0.083   0.243
    1UNL    H13   42  -0.473   0.087   0.193
    1UNL    H14   43  -0.611  -0.097  -0.059
    1UNL    H15   44  -0.423  -0.233  -0.068
    1UNL    H16   45  -0.075  -0.252  -0.013
    1UNL    H17   46  -0.018   0.138   0.186
    1UNL    H18   47  -0.131   0.263   0.086
    1UNL    H19   48  -0.267   0.427  -0.193
    1UNL    H20   49  -0.158   0.273  -0.341
    1UNL    H21   50  -0.002  -0.033  -0.364
    1UNL    H22   51   0.064  -0.018  -0.154
   0.00000   0.00000   0.00000   0.00000   0.00000   0.00000   0.00000   0.00000   0.00000
Generated with MDTraj, t= 77.0
 51
    1UNL     C1    1   0.246   0.196   0.074
    1UNL     C2    2   0.183   0.074   0.134
    1UNL     C3    3   0.212   0.059   0.287
    1UNL     C4    4   0.254  -0.056   0.064
    1UNL     C5    5   0.392  -0.055   0.038
    1UNL     C6    6   0.458  -0.161  -0.021
    1UNL     C7    7   0.381  -0.269  -0.061
    1UNL     O1    8   0.430  -0.372  -0.139
    1UNL     C8    9   0.241  -0.266  -0.035
    1UNL     C9   10   0.174  -0.165   0.033
    1UNL     O2   11   0.035  -0.182   0.056
    1UNL    C10   12  -0.039  -0.074   0.126
    1UNL    C11   13  -0.186  -0.067   0.089
    1UNL    C12   14  -0.261   0.015   0.170
    1UNL    C13   15  -0.399   0.010   0.149
    1UNL    C14   16  -0.457  -0.065   0.052
    1UNL     O3   17  -0.596  -0.057   0.035
    1UNL    C15   18  -0.376  -0.150  -0.020
    1UNL    C16   19  -0.240  -0.157  -0.005
    1UNL     O4   20  -0.169  -0.252  -0.075
    1UNL    C17   21   0.024   0.074   0.108
    1UNL    C18   22  -0.020   0.148  -0.014
    1UNL    C19   23  -0.097   0.264  -0.006
    1UNL    C20   24  -0.172   0.299  -0.119
    1UNL     O5   25  -0.239   0.426  -0.121
    1UNL    C21   26  -0.151   0.230  -0.237
    1UNL    C22   27  -0.064   0.116  -0.245
    1UNL     O6   28  -0.050   0.053  -0.366
    1UNL    C23   29  -0.000   0.076  -0.132
    1UNL     H1   30   0.347   0.219   0.106
    1UNL     H2   31   0.255   0.179  -0.034
    1UNL     H3   32   0.190   0.286   0.098
    1UNL     H4   33   0.172   0.139   0.346
    1UNL     H5   34   0.165  -0.036   0.327
    1UNL     H6   35   0.327   0.043   0.291
    1UNL     H7   36   0.454   0.021   0.080
    1UNL     H8   37   0.565  -0.168  -0.025
    1UNL     H9   38   0.520  -0.349  -0.180
    1UNL    H10   39   0.178  -0.340  -0.067
    1UNL    H11   40  -0.036  -0.106   0.230
    1UNL    H12   41  -0.218   0.077   0.243
    1UNL    H13   42  -0.456   0.079   0.210
    1UNL    H14   43  -0.623  -0.114  -0.038
    1UNL    H15   44  -0.420  -0.220  -0.087
    1UNL    H16   45  -0.079  -0.237  -0.046
    1UNL    H17   46  -0.015   0.129   0.187
    1UNL    H18   47  -0.116   0.321   0.083
    1UNL    H19   48  -0.293   0.448  -0.198
    1UNL    H20   49  -0.211   0.261  -0.324
    1UNL    H21   50   0.004  -0.033  -0.351
    1UNL    H22   51   0.067  -0.007  -0.135
   0.00000   0.00000   0.00000   0.00000   0.00000   0.00000   0.00000   0.00000   0.00000
Generated with MDTraj, t= 78.0
 51
    1UNL     C1    1   0.235   0.195   0.049
    1UNL     C2    2   0.181   0.069   0.123
    1UNL     C3    3   0.219   0.084   0.281
    1UNL     C4    4   0.255  -0.051   0.069
    1UNL     C5    5   0.392  -0.055   0.074
    1UNL     C6    6   0.455  -0.165   0.011
    1UNL     C7    7   0.374  -0.266  -0.047
    1UNL     O1    8   0.434  -0.385  -0.102
    1UNL     C8    9   0.237  -0.260  -0.052
    1UNL     C9   10   0.174  -0.150   0.010
    1UNL     O2   11   0.038  -0.149   0.009
    1UNL    C10   12  -0.024  -0.082   0.121
    1UNL    C11   13  -0.177  -0.077   0.101
    1UNL    C12   14  -0.256  -0.008   0.188
    1UNL    C13   15  -0.395   0.003   0.163
    1UNL    C14   16  -0.461  -0.064   0.060
    1UNL     O3   17  -0.596  -0.066   0.045
    1UNL    C15   18  -0.379  -0.135  -0.024
    1UNL    C16   19  -0.238  -0.147  -0.008
    1UNL     O4   20  -0.175  -0.226  -0.103
    1UNL    C17   21   0.025   0.066   0.108
    1UNL    C18   22  -0.018   0.127  -0.018
    1UNL    C19   23  -0.094   0.244  -0.005
    1UNL    C20   24  -0.156   0.302  -0.118
    1UNL     O5   25  -0.229   0.413  -0.095
    1UNL    C21   26  -0.140   0.241  -0.242
    1UNL    C22   27  -0.075   0.116  -0.250
    1UNL     O6   28  -0.072   0.058  -0.379
    1UNL    C23   29  -0.014   0.057  -0.144
    1UNL     H1   30   0.345   0.194   0.057
    1UNL     H2   31   0.215   0.193  -0.058
    1UNL     H3   32   0.203   0.288   0.093
    1UNL     H4   33   0.159   0.160   0.334
    1UNL     H5   34   0.199  -0.013   0.331
    1UNL     H6   35   0.333   0.098   0.279
    1UNL     H7   36   0.449   0.017   0.130
    1UNL     H8   37   0.562  -0.174   0.022
    1UNL     H9   38   0.528  -0.362  -0.119
    1UNL    H10   39   0.182  -0.329  -0.123
    1UNL    H11   40   0.007  -0.139   0.209
    1UNL    H12   41  -0.223   0.054   0.274
    1UNL    H13   42  -0.446   0.075   0.223
    1UNL    H14   43  -0.628  -0.132  -0.020
    1UNL    H15   44  -0.427  -0.185  -0.109
    1UNL    H16   45  -0.094  -0.263  -0.060
    1UNL    H17   46  -0.010   0.117   0.193
    1UNL    H18   47  -0.104   0.290   0.090
    1UNL    H19   48  -0.272   0.421  -0.181
    1UNL    H20   49  -0.175   0.279  -0.335
    1UNL    H21   50  -0.056  -0.044  -0.371
    1UNL    H22   51   0.037  -0.037  -0.144
   0.00000   0.00000   0.00000   0.00000   0.00000   0.00000   0.00000   0.00000   0.00000
Generated with MDTraj, t= 79.0
 51
    1UNL     C1    1   0.243   0.194   0.034
    1UNL     C2    2   0.181   0.074   0.118
    1UNL     C3    3   0.204   0.086   0.272
    1UNL     C4    4   0.256  -0.054   0.070
    1UNL     C5    5   0.391  -0.058   0.084
    1UNL     C6    6   0.457  -0.168   0.024
    1UNL     C7    7   0.396  -0.281  -0.024
    1UNL     O1    8   0.470  -0.386  -0.078
    1UNL     C8    9   0.260  -0.285  -0.022
    1UNL     C9   10   0.188  -0.173   0.024
    1UNL     O2   11   0.044  -0.175   0.011
    1UNL    C10   12  -0.032  -0.096   0.101
    1UNL    C11   13  -0.179  -0.107   0.094
    1UNL    C12   14  -0.246  -0.056   0.201
    1UNL    C13   15  -0.386  -0.030   0.199
    1UNL    C14   16  -0.456  -0.067   0.083
    1UNL     O3   17  -0.593  -0.037   0.075
    1UNL    C15   18  -0.392  -0.137  -0.021
    1UNL    C16   19  -0.253  -0.159  -0.016
    1UNL     O4   20  -0.190  -0.208  -0.128
    1UNL    C17   21   0.024   0.054   0.090
    1UNL    C18   22  -0.042   0.132  -0.026
    1UNL    C19   23  -0.106   0.257  -0.014
    1UNL    C20   24  -0.157   0.324  -0.127
    1UNL     O5   25  -0.222   0.441  -0.119
    1UNL    C21   26  -0.155   0.258  -0.250
    1UNL    C22   27  -0.088   0.142  -0.269
    1UNL     O6   28  -0.076   0.084  -0.394
    1UNL    C23   29  -0.026   0.087  -0.159
    1UNL     H1   30   0.354   0.192   0.035
    1UNL     H2   31   0.212   0.166  -0.067
    1UNL     H3   32   0.210   0.294   0.052
    1UNL     H4   33   0.145   0.180   0.300
    1UNL     H5   34   0.146   0.004   0.320
    1UNL     H6   35   0.311   0.075   0.304
    1UNL     H7   36   0.455   0.017   0.133
    1UNL     H8   37   0.567  -0.168   0.017
    1UNL     H9   38   0.558  -0.360  -0.108
    1UNL    H10   39   0.197  -0.356  -0.066
    1UNL    H11   40  -0.009  -0.146   0.196
    1UNL    H12   41  -0.193  -0.036   0.290
    1UNL    H13   42  -0.442   0.030   0.272
    1UNL    H14   43  -0.627  -0.079  -0.010
    1UNL    H15   44  -0.428  -0.158  -0.119
    1UNL    H16   45  -0.093  -0.210  -0.107
    1UNL    H17   46  -0.013   0.093   0.180
    1UNL    H18   47  -0.106   0.293   0.091
    1UNL    H19   48  -0.244   0.479  -0.207
    1UNL    H20   49  -0.204   0.313  -0.329
    1UNL    H21   50  -0.067  -0.016  -0.391
    1UNL    H22   51   0.010  -0.016  -0.163
   0.00000   0.00000   0.00000   0.00000   0.00000   0.00000   0.00000   0.00000   0.00000
Generated with MDTraj, t= 80.0
 51
    1UNL     C1    1   0.210   0.202   0.017
    1UNL     C2    2   0.171   0.070   0.089
    1UNL     C3    3   0.188   0.106   0.241
    1UNL     C4    4   0.249  -0.050   0.048
    1UNL     C5    5   0.382  -0.054   0.078
    1UNL     C6    6   0.456  -0.171   0.050
    1UNL     C7    7   0.394  -0.278  -0.013
    1UNL     O1    8   0.468  -0.395  -0.028
    1UNL     C8    9   0.258  -0.269  -0.042
    1UNL     C9   10   0.175  -0.164   0.006
    1UNL     O2   11   0.038  -0.183   0.001
    1UNL    C10   12  -0.025  -0.101   0.094
    1UNL    C11   13  -0.176  -0.116   0.098
    1UNL    C12   14  -0.241  -0.083   0.213
    1UNL    C13   15  -0.375  -0.054   0.208
    1UNL    C14   16  -0.453  -0.072   0.096
    1UNL     O3   17  -0.598  -0.061   0.105
    1UNL    C15   18  -0.387  -0.105  -0.020
    1UNL    C16   19  -0.249  -0.137  -0.016
    1UNL     O4   20  -0.197  -0.179  -0.136
    1UNL    C17   21   0.013   0.047   0.075
    1UNL    C18   22  -0.042   0.116  -0.040
    1UNL    C19   23  -0.095   0.242  -0.021
    1UNL    C20   24  -0.147   0.319  -0.120
    1UNL     O5   25  -0.197   0.448  -0.087
    1UNL    C21   26  -0.137   0.260  -0.248
    1UNL    C22   27  -0.074   0.141  -0.278
    1UNL     O6   28  -0.069   0.096  -0.406
    1UNL    C23   29  -0.026   0.064  -0.166
    1UNL     H1   30   0.303   0.229   0.070
    1UNL     H2   31   0.222   0.206  -0.093
    1UNL     H3   32   0.143   0.282   0.043
    1UNL     H4   33   0.122   0.199   0.271
    1UNL     H5   34   0.165   0.030   0.321
    1UNL     H6   35   0.293   0.124   0.264
    1UNL     H7   36   0.436   0.023   0.130
    1UNL     H8   37   0.559  -0.170   0.069
    1UNL     H9   38   0.558  -0.377  -0.003
    1UNL    H10   39   0.222  -0.354  -0.100
    1UNL    H11   40   0.020  -0.135   0.190
    1UNL    H12   41  -0.189  -0.068   0.307
    1UNL    H13   42  -0.425  -0.033   0.299
    1UNL    H14   43  -0.651  -0.088   0.022
    1UNL    H15   44  -0.433  -0.096  -0.119
    1UNL    H16   45  -0.104  -0.210  -0.122
    1UNL    H17   46  -0.035   0.096   0.155
    1UNL    H18   47  -0.104   0.290   0.071
    1UNL    H19   48  -0.218   0.508  -0.166
    1UNL    H20   49  -0.161   0.325  -0.333
    1UNL    H21   50  -0.069  -0.002  -0.406
    1UNL    H22   51   0.016  -0.030  -0.189
   0.00000   0.00000   0.00000   0.00000   0.00000   0.00000   0.00000   0.00000   0.00000
Generated with MDTraj, t= 81.0
 51
    1UNL     C1    1   0.230   0.193   0.009
    1UNL     C2    2   0.172   0.084   0.096
    1UNL     C3    3   0.203   0.116   0.234
    1UNL     C4    4   0.245  -0.049   0.057
    1UNL     C5    5   0.379  -0.064   0.080
    1UNL     C6    6   0.450  -0.177   0.044
    1UNL     C7    7   0.393  -0.294  -0.005
    1UNL     O1    8   0.464  -0.418  -0.031
    1UNL     C8    9   0.250  -0.288  -0.015
    1UNL     C9   10   0.180  -0.170   0.016
    1UNL     O2   11   0.042  -0.161  -0.019
    1UNL    C10   12  -0.028  -0.088   0.087
    1UNL    C11   13  -0.182  -0.111   0.089
    1UNL    C12   14  -0.242  -0.097   0.217
    1UNL    C13   15  -0.377  -0.085   0.222
    1UNL    C14   16  -0.460  -0.104   0.111
    1UNL     O3   17  -0.589  -0.084   0.125
    1UNL    C15   18  -0.395  -0.137  -0.008
    1UNL    C16   19  -0.258  -0.134  -0.031
    1UNL     O4   20  -0.206  -0.161  -0.155
    1UNL    C17   21   0.014   0.062   0.088
    1UNL    C18   22  -0.045   0.142  -0.033
    1UNL    C19   23  -0.100   0.263  -0.020
    1UNL    C20   24  -0.150   0.334  -0.132
    1UNL     O5   25  -0.209   0.458  -0.121
    1UNL    C21   26  -0.131   0.284  -0.264
    1UNL    C22   27  -0.071   0.154  -0.270
    1UNL     O6   28  -0.049   0.096  -0.395
    1UNL    C23   29  -0.027   0.086  -0.156
    1UNL     H1   30   0.324   0.240   0.044
    1UNL     H2   31   0.231   0.154  -0.094
    1UNL     H3   32   0.158   0.275   0.003
    1UNL     H4   33   0.142   0.202   0.279
    1UNL     H5   34   0.176   0.029   0.302
    1UNL     H6   35   0.308   0.127   0.262
    1UNL     H7   36   0.429   0.021   0.121
    1UNL     H8   37   0.560  -0.165   0.058
    1UNL     H9   38   0.558  -0.413  -0.008
    1UNL    H10   39   0.192  -0.362  -0.070
    1UNL    H11   40   0.013  -0.130   0.182
    1UNL    H12   41  -0.186  -0.107   0.309
    1UNL    H13   42  -0.430  -0.070   0.315
    1UNL    H14   43  -0.638  -0.096   0.037
    1UNL    H15   44  -0.453  -0.137  -0.097
    1UNL    H16   45  -0.113  -0.185  -0.148
    1UNL    H17   46  -0.032   0.099   0.176
    1UNL    H18   47  -0.131   0.310   0.076
    1UNL    H19   48  -0.198   0.508  -0.209
    1UNL    H20   49  -0.155   0.323  -0.359
    1UNL    H21   50  -0.044   0.001  -0.388
    1UNL    H22   51   0.038  -0.003  -0.175
   0.00000   0.00000   0.00000   0.00000   0.00000   0.00000   0.00000   0.00000   0.00000
Generated with MDTraj, t= 82.0
 51
    1UNL     C1    1   0.248   0.186   0.012
    1UNL     C2    2   0.179   0.079   0.106
    1UNL     C3    3   0.207   0.115   0.255
    1UNL     C4    4   0.244  -0.054   0.063
    1UNL     C5    5   0.382  -0.077   0.092
    1UNL     C6    6   0.446  -0.193   0.049
    1UNL     C7    7   0.370  -0.296  -0.013
    1UNL     O1    8   0.435  -0.413  -0.043
    1UNL     C8    9   0.234  -0.277  -0.028
    1UNL     C9   10   0.170  -0.161   0.011
    1UNL     O2   11   0.034  -0.145  -0.009
    1UNL    C10   12  -0.028  -0.062   0.095
    1UNL    C11   13  -0.178  -0.083   0.102
    1UNL    C12   14  -0.249  -0.064   0.223
    1UNL    C13   15  -0.385  -0.080   0.232
    1UNL    C14   16  -0.458  -0.128   0.119
    1UNL     O3   17  -0.596  -0.154   0.120
    1UNL    C15   18  -0.394  -0.140  -0.005
    1UNL    C16   19  -0.257  -0.127  -0.010
    1UNL     O4   20  -0.195  -0.147  -0.130
    1UNL    C17   21   0.025   0.081   0.083
    1UNL    C18   22  -0.030   0.137  -0.048
    1UNL    C19   23  -0.102   0.253  -0.028
    1UNL    C20   24  -0.145   0.327  -0.141
    1UNL     O5   25  -0.213   0.446  -0.115
    1UNL    C21   26  -0.126   0.278  -0.269
    1UNL    C22   27  -0.062   0.154  -0.295
    1UNL     O6   28  -0.037   0.120  -0.432
    1UNL    C23   29  -0.016   0.087  -0.178
    1UNL     H1   30   0.358   0.184   0.012
    1UNL     H2   31   0.206   0.192  -0.090
    1UNL     H3   32   0.228   0.284   0.061
    1UNL     H4   33   0.159   0.207   0.287
    1UNL     H5   34   0.190   0.036   0.339
    1UNL     H6   35   0.319   0.129   0.267
    1UNL     H7   36   0.430   0.002   0.145
    1UNL     H8   37   0.547  -0.215   0.047
    1UNL     H9   38   0.526  -0.406  -0.000
    1UNL    H10   39   0.185  -0.347  -0.090
    1UNL    H11   40   0.017  -0.100   0.189
    1UNL    H12   41  -0.192  -0.059   0.314
    1UNL    H13   42  -0.442  -0.086   0.322
    1UNL    H14   43  -0.630  -0.193   0.034
    1UNL    H15   44  -0.454  -0.165  -0.091
    1UNL    H16   45  -0.099  -0.154  -0.121
    1UNL    H17   46  -0.012   0.140   0.161
    1UNL    H18   47  -0.105   0.306   0.066
    1UNL    H19   48  -0.211   0.512  -0.186
    1UNL    H20   49  -0.166   0.327  -0.359
    1UNL    H21   50  -0.012   0.031  -0.442
    1UNL    H22   51   0.034  -0.005  -0.181
   0.00000   0.00000   0.00000   0.00000   0.00000   0.00000   0.00000   0.00000   0.00000
Generated with MDTraj, t= 83.0
 51
    1UNL     C1    1   0.245   0.186   0.023
    1UNL     C2    2   0.178   0.082   0.109
    1UNL     C3    3   0.203   0.106   0.260
    1UNL     C4    4   0.237  -0.055   0.073
    1UNL     C5    5   0.376  -0.084   0.073
    1UNL     C6    6   0.434  -0.197   0.034
    1UNL     C7    7   0.360  -0.301  -0.016
    1UNL     O1    8   0.424  -0.407  -0.063
    1UNL     C8    9   0.223  -0.281  -0.029
    1UNL     C9   10   0.160  -0.164   0.022
    1UNL     O2   11   0.027  -0.146  -0.009
    1UNL    C10   12  -0.039  -0.059   0.086
    1UNL    C11   13  -0.184  -0.072   0.088
    1UNL    C12   14  -0.251  -0.038   0.207
    1UNL    C13   15  -0.380  -0.074   0.225
    1UNL    C14   16  -0.454  -0.138   0.126
    1UNL     O3   17  -0.587  -0.180   0.153
    1UNL    C15   18  -0.385  -0.154   0.000
    1UNL    C16   19  -0.256  -0.121  -0.015
    1UNL     O4   20  -0.198  -0.157  -0.142
    1UNL    C17   21   0.020   0.086   0.088
    1UNL    C18   22  -0.019   0.153  -0.036
    1UNL    C19   23  -0.102   0.271  -0.039
    1UNL    C20   24  -0.147   0.332  -0.152
    1UNL     O5   25  -0.238   0.440  -0.143
    1UNL    C21   26  -0.111   0.277  -0.271
    1UNL    C22   27  -0.033   0.166  -0.279
    1UNL     O6   28  -0.008   0.109  -0.395
    1UNL    C23   29   0.009   0.104  -0.161
    1UNL     H1   30   0.347   0.209   0.057
    1UNL     H2   31   0.235   0.152  -0.081
    1UNL     H3   32   0.192   0.286   0.032
    1UNL     H4   33   0.162   0.202   0.284
    1UNL     H5   34   0.146   0.021   0.314
    1UNL     H6   35   0.314   0.089   0.292
    1UNL     H7   36   0.447  -0.006   0.100
    1UNL     H8   37   0.545  -0.209   0.028
    1UNL     H9   38   0.516  -0.406  -0.019
    1UNL    H10   39   0.169  -0.359  -0.087
    1UNL    H11   40   0.005  -0.107   0.175
    1UNL    H12   41  -0.187  -0.018   0.295
    1UNL    H13   42  -0.424  -0.070   0.325
    1UNL    H14   43  -0.617  -0.239   0.082
    1UNL    H15   44  -0.434  -0.187  -0.091
    1UNL    H16   45  -0.101  -0.147  -0.131
    1UNL    H17   46  -0.016   0.146   0.167
    1UNL    H18   47  -0.108   0.337   0.046
    1UNL    H19   48  -0.230   0.494  -0.222
    1UNL    H20   49  -0.159   0.312  -0.358
    1UNL    H21   50   0.030   0.022  -0.392
    1UNL    H22   51   0.053   0.005  -0.158
   0.00000   0.00000   0.00000   0.00000   0.00000   0.00000   0.00000   0.00000   0.00000
Generated with MDTraj, t= 84.0
 51
    1UNL     C1    1   0.226   0.213   0.048
    1UNL     C2    2   0.174   0.085   0.110
    1UNL     C3    3   0.200   0.082   0.268
    1UNL     C4    4   0.245  -0.034   0.045
    1UNL     C5    5   0.380  -0.068   0.060
    1UNL     C6    6   0.436  -0.193   0.040
    1UNL     C7    7   0.362  -0.286  -0.032
    1UNL     O1    8   0.406  -0.409  -0.077
    1UNL     C8    9   0.223  -0.258  -0.055
    1UNL     C9   10   0.170  -0.140  -0.009
    1UNL     O2   11   0.029  -0.144  -0.002
    1UNL    C10   12  -0.034  -0.065   0.101
    1UNL    C11   13  -0.189  -0.080   0.105
    1UNL    C12   14  -0.262  -0.046   0.222
    1UNL    C13   15  -0.394  -0.070   0.233
    1UNL    C14   16  -0.468  -0.141   0.133
    1UNL     O3   17  -0.598  -0.152   0.154
    1UNL    C15   18  -0.402  -0.171   0.015
    1UNL    C16   19  -0.267  -0.138  -0.004
    1UNL     O4   20  -0.202  -0.169  -0.123
    1UNL    C17   21   0.017   0.079   0.093
    1UNL    C18   22  -0.011   0.146  -0.042
    1UNL    C19   23  -0.100   0.251  -0.038
    1UNL    C20   24  -0.149   0.316  -0.153
    1UNL     O5   25  -0.229   0.430  -0.150
    1UNL    C21   26  -0.104   0.267  -0.277
    1UNL    C22   27  -0.019   0.160  -0.287
    1UNL     O6   28   0.036   0.114  -0.408
    1UNL    C23   29   0.029   0.102  -0.168
    1UNL     H1   30   0.322   0.229   0.100
    1UNL     H2   31   0.240   0.204  -0.061
    1UNL     H3   32   0.172   0.309   0.069
    1UNL     H4   33   0.149   0.177   0.293
    1UNL     H5   34   0.170  -0.010   0.325
    1UNL     H6   35   0.314   0.091   0.282
    1UNL     H7   36   0.435   0.007   0.114
    1UNL     H8   37   0.534  -0.218   0.069
    1UNL     H9   38   0.483  -0.443  -0.020
    1UNL    H10   39   0.158  -0.320  -0.108
    1UNL    H11   40   0.011  -0.108   0.190
    1UNL    H12   41  -0.210  -0.006   0.305
    1UNL    H13   42  -0.443  -0.068   0.328
    1UNL    H14   43  -0.638  -0.213   0.094
    1UNL    H15   44  -0.463  -0.215  -0.061
    1UNL    H16   45  -0.103  -0.164  -0.114
    1UNL    H17   46  -0.037   0.117   0.176
    1UNL    H18   47  -0.147   0.268   0.064
    1UNL    H19   48  -0.211   0.496  -0.220
    1UNL    H20   49  -0.148   0.304  -0.368
    1UNL    H21   50   0.106   0.046  -0.397
    1UNL    H22   51   0.100   0.019  -0.174
   0.00000   0.00000   0.00000   0.00000   0.00000   0.00000   0.00000   0.00000   0.00000
Generated with MDTraj, t= 85.0
 51
    1UNL     C1    1   0.220   0.198   0.065
    1UNL     C2    2   0.156   0.071   0.127
    1UNL     C3    3   0.165   0.070   0.276
    1UNL     C4    4   0.231  -0.052   0.068
    1UNL     C5    5   0.370  -0.057   0.054
    1UNL     C6    6   0.450  -0.161   0.005
    1UNL     C7    7   0.375  -0.271  -0.042
    1UNL     O1    8   0.436  -0.373  -0.109
    1UNL     C8    9   0.236  -0.271  -0.046
    1UNL     C9   10   0.164  -0.162   0.009
    1UNL     O2   11   0.028  -0.165  -0.005
    1UNL    C10   12  -0.039  -0.084   0.093
    1UNL    C11   13  -0.187  -0.098   0.105
    1UNL    C12   14  -0.245  -0.053   0.223
    1UNL    C13   15  -0.380  -0.066   0.243
    1UNL    C14   16  -0.468  -0.105   0.142
    1UNL     O3   17  -0.604  -0.107   0.172
    1UNL    C15   18  -0.409  -0.144   0.020
    1UNL    C16   19  -0.269  -0.140  -0.003
    1UNL     O4   20  -0.212  -0.191  -0.114
    1UNL    C17   21   0.005   0.070   0.088
    1UNL    C18   22  -0.038   0.140  -0.043
    1UNL    C19   23  -0.116   0.252  -0.042
    1UNL    C20   24  -0.144   0.312  -0.165
    1UNL     O5   25  -0.237   0.410  -0.171
    1UNL    C21   26  -0.078   0.274  -0.286
    1UNL    C22   27   0.010   0.163  -0.283
    1UNL     O6   28   0.060   0.120  -0.406
    1UNL    C23   29   0.019   0.086  -0.161
    1UNL     H1   30   0.329   0.209   0.089
    1UNL     H2   31   0.201   0.204  -0.045
    1UNL     H3   32   0.183   0.292   0.109
    1UNL     H4   33   0.111   0.164   0.316
    1UNL     H5   34   0.115  -0.023   0.307
    1UNL     H6   35   0.269   0.051   0.315
    1UNL     H7   36   0.426   0.027   0.085
    1UNL     H8   37   0.559  -0.164   0.017
    1UNL     H9   38   0.530  -0.377  -0.081
    1UNL    H10   39   0.197  -0.358  -0.104
    1UNL    H11   40  -0.001  -0.133   0.184
    1UNL    H12   41  -0.181  -0.039   0.311
    1UNL    H13   42  -0.427  -0.048   0.340
    1UNL    H14   43  -0.654  -0.145   0.101
    1UNL    H15   44  -0.475  -0.173  -0.061
    1UNL    H16   45  -0.114  -0.182  -0.110
    1UNL    H17   46  -0.049   0.116   0.167
    1UNL    H18   47  -0.175   0.282   0.035
    1UNL    H19   48  -0.215   0.483  -0.237
    1UNL    H20   49  -0.087   0.322  -0.384
    1UNL    H21   50   0.133   0.053  -0.382
    1UNL    H22   51   0.086   0.007  -0.155
   0.00000   0.00000   0.00000   0.00000   0.00000   0.00000   0.00000   0.00000   0.00000
Generated with MDTraj, t= 86.0
 51
    1UNL     C1    1   0.216   0.197   0.065
    1UNL     C2    2   0.149   0.062   0.133
    1UNL     C3    3   0.174   0.052   0.283
    1UNL     C4    4   0.228  -0.052   0.069
    1UNL     C5    5   0.366  -0.041   0.060
    1UNL     C6    6   0.445  -0.137  -0.007
    1UNL     C7    7   0.381  -0.240  -0.064
    1UNL     O1    8   0.454  -0.336  -0.131
    1UNL     C8    9   0.246  -0.246  -0.068
    1UNL     C9   10   0.163  -0.153  -0.003
    1UNL     O2   11   0.023  -0.164  -0.005
    1UNL    C10   12  -0.045  -0.093   0.101
    1UNL    C11   13  -0.200  -0.106   0.118
    1UNL    C12   14  -0.255  -0.063   0.237
    1UNL    C13   15  -0.394  -0.047   0.252
    1UNL    C14   16  -0.475  -0.089   0.148
    1UNL     O3   17  -0.615  -0.066   0.155
    1UNL    C15   18  -0.419  -0.132   0.026
    1UNL    C16   19  -0.282  -0.141   0.013
    1UNL     O4   20  -0.229  -0.179  -0.111
    1UNL    C17   21  -0.000   0.055   0.087
    1UNL    C18   22  -0.030   0.104  -0.046
    1UNL    C19   23  -0.117   0.209  -0.052
    1UNL    C20   24  -0.144   0.278  -0.168
    1UNL     O5   25  -0.224   0.394  -0.163
    1UNL    C21   26  -0.073   0.248  -0.281
    1UNL    C22   27   0.016   0.137  -0.278
    1UNL     O6   28   0.084   0.118  -0.394
    1UNL    C23   29   0.040   0.068  -0.160
    1UNL     H1   30   0.320   0.221   0.100
    1UNL     H2   31   0.202   0.219  -0.045
    1UNL     H3   32   0.159   0.272   0.120
    1UNL     H4   33   0.113   0.133   0.343
    1UNL     H5   34   0.176  -0.042   0.341
    1UNL     H6   35   0.278   0.084   0.292
    1UNL     H7   36   0.414   0.036   0.124
    1UNL     H8   37   0.552  -0.133   0.005
    1UNL     H9   38   0.544  -0.347  -0.101
    1UNL    H10   39   0.192  -0.326  -0.109
    1UNL    H11   40   0.002  -0.134   0.192
    1UNL    H12   41  -0.185  -0.037   0.313
    1UNL    H13   42  -0.440  -0.018   0.341
    1UNL    H14   43  -0.659  -0.084   0.072
    1UNL    H15   44  -0.472  -0.170  -0.058
    1UNL    H16   45  -0.134  -0.183  -0.092
    1UNL    H17   46  -0.054   0.116   0.155
    1UNL    H18   47  -0.177   0.249   0.036
    1UNL    H19   48  -0.184   0.471  -0.216
    1UNL    H20   49  -0.085   0.306  -0.367
    1UNL    H21   50   0.167   0.055  -0.393
    1UNL    H22   51   0.102  -0.024  -0.170
   0.00000   0.00000   0.00000   0.00000   0.00000   0.00000   0.00000   0.00000   0.00000
Generated with MDTraj, t= 87.0
 51
    1UNL     C1    1   0.201   0.204   0.102
    1UNL     C2    2   0.158   0.068   0.142
    1UNL     C3    3   0.168   0.047   0.288
    1UNL     C4    4   0.234  -0.046   0.074
    1UNL     C5    5   0.367  -0.039   0.059
    1UNL     C6    6   0.437  -0.130  -0.022
    1UNL     C7    7   0.369  -0.236  -0.081
    1UNL     O1    8   0.428  -0.316  -0.177
    1UNL     C8    9   0.234  -0.259  -0.057
    1UNL     C9   10   0.164  -0.156   0.012
    1UNL     O2   11   0.024  -0.176   0.020
    1UNL    C10   12  -0.040  -0.101   0.122
    1UNL    C11   13  -0.189  -0.112   0.121
    1UNL    C12   14  -0.249  -0.077   0.238
    1UNL    C13   15  -0.384  -0.053   0.242
    1UNL    C14   16  -0.460  -0.065   0.129
    1UNL     O3   17  -0.598  -0.055   0.142
    1UNL    C15   18  -0.404  -0.108   0.011
    1UNL    C16   19  -0.266  -0.128   0.000
    1UNL     O4   20  -0.210  -0.174  -0.115
    1UNL    C17   21   0.000   0.050   0.100
    1UNL    C18   22  -0.029   0.120  -0.033
    1UNL    C19   23  -0.123   0.223  -0.045
    1UNL    C20   24  -0.144   0.286  -0.170
    1UNL     O5   25  -0.246   0.374  -0.196
    1UNL    C21   26  -0.075   0.230  -0.277
    1UNL    C22   27   0.013   0.128  -0.276
    1UNL     O6   28   0.087   0.083  -0.381
    1UNL    C23   29   0.034   0.079  -0.147
    1UNL     H1   30   0.293   0.238   0.156
    1UNL     H2   31   0.219   0.201  -0.009
    1UNL     H3   32   0.118   0.272   0.127
    1UNL     H4   33   0.105   0.118   0.346
    1UNL     H5   34   0.148  -0.057   0.327
    1UNL     H6   35   0.269   0.062   0.331
    1UNL     H7   36   0.428   0.023   0.119
    1UNL     H8   37   0.543  -0.123  -0.020
    1UNL     H9   38   0.522  -0.327  -0.164
    1UNL    H10   39   0.186  -0.357  -0.072
    1UNL    H11   40  -0.008  -0.136   0.222
    1UNL    H12   41  -0.203  -0.067   0.336
    1UNL    H13   42  -0.435  -0.026   0.338
    1UNL    H14   43  -0.638  -0.059   0.052
    1UNL    H15   44  -0.465  -0.123  -0.077
    1UNL    H16   45  -0.116  -0.196  -0.103
    1UNL    H17   46  -0.052   0.098   0.178
    1UNL    H18   47  -0.162   0.255   0.049
    1UNL    H19   48  -0.221   0.443  -0.261
    1UNL    H20   49  -0.080   0.282  -0.375
    1UNL    H21   50   0.148   0.009  -0.345
    1UNL    H22   51   0.094  -0.009  -0.133
   0.00000   0.00000   0.00000   0.00000   0.00000   0.00000   0.00000   0.00000   0.00000
Generated with MDTraj, t= 88.0
 51
    1UNL     C1    1   0.221   0.219   0.117
    1UNL     C2    2   0.169   0.071   0.142
    1UNL     C3    3   0.188   0.041   0.296
    1UNL     C4    4   0.245  -0.047   0.082
    1UNL     C5    5   0.375  -0.031   0.043
    1UNL     C6    6   0.437  -0.122  -0.045
    1UNL     C7    7   0.363  -0.229  -0.101
    1UNL     O1    8   0.426  -0.325  -0.188
    1UNL     C8    9   0.224  -0.236  -0.074
    1UNL     C9   10   0.164  -0.150   0.022
    1UNL     O2   11   0.030  -0.182   0.049
    1UNL    C10   12  -0.032  -0.085   0.137
    1UNL    C11   13  -0.193  -0.095   0.128
    1UNL    C12   14  -0.271  -0.070   0.237
    1UNL    C13   15  -0.414  -0.057   0.231
    1UNL    C14   16  -0.483  -0.069   0.110
    1UNL     O3   17  -0.617  -0.060   0.104
    1UNL    C15   18  -0.405  -0.097   0.001
    1UNL    C16   19  -0.262  -0.111   0.006
    1UNL     O4   20  -0.198  -0.128  -0.118
    1UNL    C17   21   0.021   0.057   0.105
    1UNL    C18   22  -0.013   0.113  -0.027
    1UNL    C19   23  -0.112   0.211  -0.038
    1UNL    C20   24  -0.151   0.249  -0.165
    1UNL     O5   25  -0.250   0.348  -0.164
    1UNL    C21   26  -0.088   0.201  -0.278
    1UNL    C22   27   0.011   0.111  -0.266
    1UNL     O6   28   0.069   0.063  -0.379
    1UNL    C23   29   0.051   0.067  -0.142
    1UNL     H1   30   0.320   0.231   0.165
    1UNL     H2   31   0.239   0.245   0.010
    1UNL     H3   32   0.149   0.292   0.162
    1UNL     H4   33   0.138   0.120   0.347
    1UNL     H5   34   0.133  -0.048   0.342
    1UNL     H6   35   0.293   0.039   0.336
    1UNL     H7   36   0.437   0.053   0.078
    1UNL     H8   37   0.549  -0.118  -0.050
    1UNL     H9   38   0.521  -0.329  -0.163
    1UNL    H10   39   0.174  -0.321  -0.115
    1UNL    H11   40  -0.000  -0.124   0.236
    1UNL    H12   41  -0.224  -0.054   0.334
    1UNL    H13   42  -0.463  -0.043   0.323
    1UNL    H14   43  -0.649  -0.050   0.009
    1UNL    H15   44  -0.451  -0.114  -0.093
    1UNL    H16   45  -0.102  -0.151  -0.105
    1UNL    H17   46  -0.031   0.116   0.177
    1UNL    H18   47  -0.158   0.257   0.044
    1UNL    H19   48  -0.247   0.407  -0.240
    1UNL    H20   49  -0.128   0.222  -0.373
    1UNL    H21   50   0.125  -0.015  -0.358
    1UNL    H22   51   0.106  -0.022  -0.143
   0.00000   0.00000   0.00000   0.00000   0.00000   0.00000   0.00000   0.00000   0.00000
Generated with MDTraj, t= 89.0
 51
    1UNL     C1    1   0.239   0.205   0.123
    1UNL     C2    2   0.177   0.068   0.156
    1UNL     C3    3   0.196   0.042   0.304
    1UNL     C4    4   0.237  -0.044   0.074
    1UNL     C5    5   0.373  -0.041   0.037
    1UNL     C6    6   0.422  -0.135  -0.058
    1UNL     C7    7   0.356  -0.246  -0.099
    1UNL     O1    8   0.412  -0.332  -0.193
    1UNL     C8    9   0.230  -0.262  -0.046
    1UNL     C9   10   0.165  -0.158   0.024
    1UNL     O2   11   0.028  -0.178   0.063
    1UNL    C10   12  -0.039  -0.073   0.136
    1UNL    C11   13  -0.183  -0.082   0.114
    1UNL    C12   14  -0.258  -0.049   0.225
    1UNL    C13   15  -0.397  -0.049   0.220
    1UNL    C14   16  -0.458  -0.073   0.098
    1UNL     O3   17  -0.599  -0.079   0.075
    1UNL    C15   18  -0.383  -0.086  -0.018
    1UNL    C16   19  -0.243  -0.093  -0.009
    1UNL     O4   20  -0.172  -0.114  -0.121
    1UNL    C17   21   0.026   0.069   0.112
    1UNL    C18   22  -0.022   0.132  -0.019
    1UNL    C19   23  -0.131   0.220  -0.027
    1UNL    C20   24  -0.177   0.253  -0.154
    1UNL     O5   25  -0.288   0.338  -0.168
    1UNL    C21   26  -0.113   0.196  -0.267
    1UNL    C22   27   0.002   0.110  -0.251
    1UNL     O6   28   0.057   0.056  -0.365
    1UNL    C23   29   0.046   0.074  -0.129
    1UNL     H1   30   0.347   0.202   0.136
    1UNL     H2   31   0.230   0.237   0.017
    1UNL     H3   32   0.198   0.287   0.191
    1UNL     H4   33   0.138   0.106   0.365
    1UNL     H5   34   0.152  -0.059   0.333
    1UNL     H6   35   0.308   0.052   0.320
    1UNL     H7   36   0.429   0.036   0.080
    1UNL     H8   37   0.517  -0.128  -0.099
    1UNL     H9   38   0.511  -0.315  -0.205
    1UNL    H10   39   0.174  -0.352  -0.055
    1UNL    H11   40  -0.026  -0.115   0.240
    1UNL    H12   41  -0.214  -0.023   0.317
    1UNL    H13   42  -0.452  -0.016   0.310
    1UNL    H14   43  -0.618  -0.084  -0.025
    1UNL    H15   44  -0.421  -0.097  -0.119
    1UNL    H16   45  -0.080  -0.139  -0.093
    1UNL    H17   46  -0.016   0.136   0.182
    1UNL    H18   47  -0.197   0.258   0.059
    1UNL    H19   48  -0.275   0.396  -0.244
    1UNL    H20   49  -0.148   0.218  -0.367
    1UNL    H21   50   0.106  -0.022  -0.344
    1UNL    H22   51   0.141   0.017  -0.125
   0.00000   0.00000   0.00000   0.00000   0.00000   0.00000   0.00000   0.00000   0.00000
Generated with MDTraj, t= 90.0
 51
    1UNL     C1    1   0.247   0.219   0.108
    1UNL     C2    2   0.190   0.071   0.145
    1UNL     C3    3   0.229   0.047   0.288
    1UNL     C4    4   0.242  -0.043   0.063
    1UNL     C5    5   0.374  -0.041   0.025
    1UNL     C6    6   0.426  -0.138  -0.049
    1UNL     C7    7   0.345  -0.251  -0.096
    1UNL     O1    8   0.401  -0.356  -0.161
    1UNL     C8    9   0.211  -0.251  -0.053
    1UNL     C9   10   0.160  -0.153   0.032
    1UNL     O2   11   0.026  -0.168   0.070
    1UNL    C10   12  -0.034  -0.066   0.145
    1UNL    C11   13  -0.185  -0.071   0.121
    1UNL    C12   14  -0.273  -0.044   0.221
    1UNL    C13   15  -0.412  -0.044   0.207
    1UNL    C14   16  -0.461  -0.072   0.078
    1UNL     O3   17  -0.595  -0.065   0.043
    1UNL    C15   18  -0.373  -0.104  -0.021
    1UNL    C16   19  -0.237  -0.102  -0.008
    1UNL     O4   20  -0.168  -0.159  -0.115
    1UNL    C17   21   0.030   0.066   0.123
    1UNL    C18   22  -0.012   0.127  -0.013
    1UNL    C19   23  -0.118   0.210  -0.016
    1UNL    C20   24  -0.180   0.241  -0.138
    1UNL     O5   25  -0.294   0.308  -0.131
    1UNL    C21   26  -0.122   0.211  -0.260
    1UNL    C22   27  -0.009   0.125  -0.262
    1UNL     O6   28   0.053   0.093  -0.382
    1UNL    C23   29   0.040   0.086  -0.135
    1UNL     H1   30   0.354   0.231   0.133
    1UNL     H2   31   0.244   0.267   0.007
    1UNL     H3   32   0.192   0.286   0.181
    1UNL     H4   33   0.167   0.104   0.355
    1UNL     H5   34   0.206  -0.059   0.319
    1UNL     H6   35   0.339   0.072   0.282
    1UNL     H7   36   0.444   0.038   0.056
    1UNL     H8   37   0.533  -0.135  -0.077
    1UNL     H9   38   0.501  -0.344  -0.176
    1UNL    H10   39   0.162  -0.348  -0.076
    1UNL    H11   40  -0.017  -0.100   0.250
    1UNL    H12   41  -0.235  -0.024   0.323
    1UNL    H13   42  -0.487  -0.023   0.279
    1UNL    H14   43  -0.608  -0.070  -0.058
    1UNL    H15   44  -0.407  -0.145  -0.116
    1UNL    H16   45  -0.075  -0.167  -0.089
    1UNL    H17   46  -0.005   0.132   0.198
    1UNL    H18   47  -0.164   0.222   0.074
    1UNL    H19   48  -0.303   0.366  -0.211
    1UNL    H20   49  -0.159   0.254  -0.353
    1UNL    H21   50   0.110   0.023  -0.361
    1UNL    H22   51   0.130   0.026  -0.126
   0.00000   0.00000   0.00000   0.00000   0.00000   0.00000   0.00000   0.00000   0.00000
Generated with MDTraj, t= 91.0
 51
    1UNL     C1    1   0.233   0.201   0.083
    1UNL     C2    2   0.183   0.070   0.134
    1UNL     C3    3   0.219   0.061   0.284
    1UNL     C4    4   0.245  -0.053   0.061
    1UNL     C5    5   0.375  -0.047   0.005
    1UNL     C6    6   0.435  -0.148  -0.062
    1UNL     C7    7   0.362  -0.266  -0.086
    1UNL     O1    8   0.414  -0.373  -0.153
    1UNL     C8    9   0.237  -0.279  -0.026
    1UNL     C9   10   0.178  -0.178   0.044
    1UNL     O2   11   0.043  -0.196   0.094
    1UNL    C10   12  -0.027  -0.083   0.147
    1UNL    C11   13  -0.177  -0.083   0.116
    1UNL    C12   14  -0.261  -0.017   0.207
    1UNL    C13   15  -0.393  -0.003   0.177
    1UNL    C14   16  -0.452  -0.055   0.065
    1UNL     O3   17  -0.584  -0.052   0.046
    1UNL    C15   18  -0.369  -0.115  -0.027
    1UNL    C16   19  -0.232  -0.124  -0.008
    1UNL     O4   20  -0.157  -0.172  -0.112
    1UNL    C17   21   0.021   0.062   0.116
    1UNL    C18   22  -0.032   0.122  -0.010
    1UNL    C19   23  -0.153   0.198  -0.017
    1UNL    C20   24  -0.209   0.251  -0.133
    1UNL     O5   25  -0.325   0.333  -0.135
    1UNL    C21   26  -0.134   0.223  -0.243
    1UNL    C22   27  -0.019   0.152  -0.246
    1UNL     O6   28   0.053   0.132  -0.363
    1UNL    C23   29   0.032   0.099  -0.130
    1UNL     H1   30   0.327   0.237   0.132
    1UNL     H2   31   0.259   0.194  -0.025
    1UNL     H3   32   0.147   0.273   0.099
    1UNL     H4   33   0.157   0.138   0.339
    1UNL     H5   34   0.172  -0.028   0.323
    1UNL     H6   35   0.329   0.066   0.296
    1UNL     H7   36   0.414   0.055   0.018
    1UNL     H8   37   0.531  -0.134  -0.106
    1UNL     H9   38   0.502  -0.344  -0.191
    1UNL    H10   39   0.183  -0.366  -0.042
    1UNL    H11   40  -0.018  -0.097   0.256
    1UNL    H12   41  -0.220   0.028   0.292
    1UNL    H13   42  -0.456   0.022   0.261
    1UNL    H14   43  -0.608  -0.090  -0.043
    1UNL    H15   44  -0.414  -0.168  -0.107
    1UNL    H16   45  -0.065  -0.176  -0.083
    1UNL    H17   46  -0.020   0.126   0.190
    1UNL    H18   47  -0.199   0.225   0.082
    1UNL    H19   48  -0.327   0.406  -0.205
    1UNL    H20   49  -0.167   0.266  -0.332
    1UNL    H21   50   0.130   0.077  -0.357
    1UNL    H22   51   0.109   0.030  -0.143
   0.00000   0.00000   0.00000   0.00000   0.00000   0.00000   0.00000   0.00000   0.00000
Generated with MDTraj, t= 92.0
 51
    1UNL     C1    1   0.224   0.217   0.076
    1UNL     C2    2   0.180   0.077   0.120
    1UNL     C3    3   0.224   0.055   0.280
    1UNL     C4    4   0.244  -0.037   0.042
    1UNL     C5    5   0.382  -0.041  -0.005
    1UNL     C6    6   0.441  -0.156  -0.055
    1UNL     C7    7   0.367  -0.272  -0.070
    1UNL     O1    8   0.418  -0.391  -0.120
    1UNL     C8    9   0.233  -0.267  -0.031
    1UNL     C9   10   0.175  -0.157   0.031
    1UNL     O2   11   0.049  -0.191   0.088
    1UNL    C10   12  -0.025  -0.080   0.145
    1UNL    C11   13  -0.181  -0.100   0.122
    1UNL    C12   14  -0.269  -0.031   0.210
    1UNL    C13   15  -0.407  -0.022   0.190
    1UNL    C14   16  -0.458  -0.054   0.062
    1UNL     O3   17  -0.587  -0.027   0.014
    1UNL    C15   18  -0.371  -0.116  -0.031
    1UNL    C16   19  -0.235  -0.138  -0.002
    1UNL     O4   20  -0.163  -0.216  -0.089
    1UNL    C17   21   0.026   0.065   0.109
    1UNL    C18   22  -0.023   0.117  -0.020
    1UNL    C19   23  -0.138   0.194  -0.007
    1UNL    C20   24  -0.190   0.259  -0.116
    1UNL     O5   25  -0.319   0.322  -0.096
    1UNL    C21   26  -0.135   0.242  -0.247
    1UNL    C22   27  -0.021   0.170  -0.259
    1UNL     O6   28   0.036   0.151  -0.379
    1UNL    C23   29   0.030   0.099  -0.147
    1UNL     H1   30   0.337   0.220   0.073
    1UNL     H2   31   0.199   0.232  -0.032
    1UNL     H3   32   0.173   0.295   0.137
    1UNL     H4   33   0.176   0.139   0.345
    1UNL     H5   34   0.190  -0.027   0.339
    1UNL     H6   35   0.331   0.059   0.285
    1UNL     H7   36   0.432   0.051  -0.013
    1UNL     H8   37   0.539  -0.157  -0.100
    1UNL     H9   38   0.512  -0.385  -0.140
    1UNL    H10   39   0.175  -0.360  -0.054
    1UNL    H11   40  -0.012  -0.088   0.253
    1UNL    H12   41  -0.224   0.005   0.304
    1UNL    H13   42  -0.472   0.030   0.262
    1UNL    H14   43  -0.592  -0.052  -0.080
    1UNL    H15   44  -0.420  -0.145  -0.124
    1UNL    H16   45  -0.074  -0.232  -0.051
    1UNL    H17   46  -0.006   0.135   0.183
    1UNL    H18   47  -0.180   0.218   0.090
    1UNL    H19   48  -0.328   0.384  -0.173
    1UNL    H20   49  -0.185   0.279  -0.340
    1UNL    H21   50   0.115   0.095  -0.371
    1UNL    H22   51   0.109   0.020  -0.162
   0.00000   0.00000   0.00000   0.00000   0.00000   0.00000   0.00000   0.00000   0.00000
Generated with MDTraj, t= 93.0
 51
    1UNL     C1    1   0.230   0.198   0.073
    1UNL     C2    2   0.182   0.064   0.126
    1UNL     C3    3   0.218   0.051   0.273
    1UNL     C4    4   0.244  -0.050   0.045
    1UNL     C5    5   0.372  -0.043   0.001
    1UNL     C6    6   0.445  -0.150  -0.044
    1UNL     C7    7   0.374  -0.273  -0.065
    1UNL     O1    8   0.435  -0.379  -0.117
    1UNL     C8    9   0.241  -0.285  -0.021
    1UNL     C9   10   0.177  -0.177   0.039
    1UNL     O2   11   0.045  -0.194   0.067
    1UNL    C10   12  -0.028  -0.089   0.138
    1UNL    C11   13  -0.175  -0.088   0.111
    1UNL    C12   14  -0.255  -0.016   0.198
    1UNL    C13   15  -0.388   0.006   0.173
    1UNL    C14   16  -0.445  -0.058   0.060
    1UNL     O3   17  -0.579  -0.043   0.029
    1UNL    C15   18  -0.362  -0.122  -0.031
    1UNL    C16   19  -0.232  -0.138  -0.008
    1UNL     O4   20  -0.165  -0.206  -0.109
    1UNL    C17   21   0.025   0.062   0.119
    1UNL    C18   22  -0.041   0.135  -0.009
    1UNL    C19   23  -0.145   0.224   0.005
    1UNL    C20   24  -0.205   0.265  -0.118
    1UNL     O5   25  -0.315   0.349  -0.107
    1UNL    C21   26  -0.147   0.244  -0.244
    1UNL    C22   27  -0.038   0.153  -0.250
    1UNL     O6   28   0.024   0.134  -0.375
    1UNL    C23   29   0.012   0.099  -0.132
    1UNL     H1   30   0.343   0.205   0.073
    1UNL     H2   31   0.215   0.192  -0.038
    1UNL     H3   32   0.172   0.285   0.113
    1UNL     H4   33   0.166   0.131   0.335
    1UNL     H5   34   0.173  -0.036   0.321
    1UNL     H6   35   0.322   0.043   0.295
    1UNL     H7   36   0.430   0.050  -0.010
    1UNL     H8   37   0.544  -0.134  -0.088
    1UNL     H9   38   0.513  -0.348  -0.163
    1UNL    H10   39   0.191  -0.376  -0.034
    1UNL    H11   40  -0.028  -0.118   0.242
    1UNL    H12   41  -0.203   0.025   0.281
    1UNL    H13   42  -0.452   0.052   0.242
    1UNL    H14   43  -0.594  -0.083  -0.056
    1UNL    H15   44  -0.403  -0.184  -0.107
    1UNL    H16   45  -0.072  -0.216  -0.078
    1UNL    H17   46  -0.001   0.119   0.204
    1UNL    H18   47  -0.185   0.242   0.099
    1UNL    H19   48  -0.324   0.405  -0.185
    1UNL    H20   49  -0.197   0.266  -0.334
    1UNL    H21   50   0.110   0.083  -0.363
    1UNL    H22   51   0.090   0.029  -0.134
   0.00000   0.00000   0.00000   0.00000   0.00000   0.00000   0.00000   0.00000   0.00000
Generated with MDTraj, t= 94.0
 51
    1UNL     C1    1   0.240   0.197   0.068
    1UNL     C2    2   0.186   0.064   0.136
    1UNL     C3    3   0.225   0.061   0.286
    1UNL     C4    4   0.249  -0.049   0.057
    1UNL     C5    5   0.380  -0.037   0.024
    1UNL     C6    6   0.451  -0.143  -0.032
    1UNL     C7    7   0.377  -0.252  -0.066
    1UNL     O1    8   0.431  -0.375  -0.120
    1UNL     C8    9   0.242  -0.262  -0.037
    1UNL     C9   10   0.175  -0.161   0.028
    1UNL     O2   11   0.036  -0.172   0.057
    1UNL    C10   12  -0.033  -0.083   0.132
    1UNL    C11   13  -0.181  -0.080   0.104
    1UNL    C12   14  -0.270  -0.024   0.198
    1UNL    C13   15  -0.402  -0.016   0.176
    1UNL    C14   16  -0.460  -0.056   0.058
    1UNL     O3   17  -0.594  -0.058   0.032
    1UNL    C15   18  -0.378  -0.123  -0.031
    1UNL    C16   19  -0.240  -0.126  -0.017
    1UNL     O4   20  -0.172  -0.191  -0.119
    1UNL    C17   21   0.031   0.058   0.115
    1UNL    C18   22  -0.013   0.118  -0.015
    1UNL    C19   23  -0.116   0.208  -0.006
    1UNL    C20   24  -0.187   0.270  -0.108
    1UNL     O5   25  -0.289   0.364  -0.091
    1UNL    C21   26  -0.141   0.232  -0.230
    1UNL    C22   27  -0.042   0.132  -0.251
    1UNL     O6   28  -0.012   0.095  -0.383
    1UNL    C23   29   0.020   0.071  -0.140
    1UNL     H1   30   0.346   0.203   0.103
    1UNL     H2   31   0.253   0.212  -0.044
    1UNL     H3   32   0.185   0.284   0.110
    1UNL     H4   33   0.172   0.128   0.350
    1UNL     H5   34   0.210  -0.037   0.335
    1UNL     H6   35   0.333   0.075   0.288
    1UNL     H7   36   0.420   0.059   0.047
    1UNL     H8   37   0.552  -0.134  -0.060
    1UNL     H9   38   0.519  -0.363  -0.159
    1UNL    H10   39   0.178  -0.346  -0.058
    1UNL    H11   40  -0.022  -0.119   0.233
    1UNL    H12   41  -0.230   0.009   0.294
    1UNL    H13   42  -0.470   0.030   0.253
    1UNL    H14   43  -0.610  -0.076  -0.059
    1UNL    H15   44  -0.426  -0.155  -0.122
    1UNL    H16   45  -0.075  -0.172  -0.109
    1UNL    H17   46  -0.017   0.125   0.181
    1UNL    H18   47  -0.156   0.242   0.096
    1UNL    H19   48  -0.272   0.451  -0.130
    1UNL    H20   49  -0.180   0.287  -0.317
    1UNL    H21   50   0.065   0.026  -0.381
    1UNL    H22   51   0.115   0.022  -0.156
   0.00000   0.00000   0.00000   0.00000   0.00000   0.00000   0.00000   0.00000   0.00000
Generated with MDTraj, t= 95.0
 51
    1UNL     C1    1   0.234   0.200   0.084
    1UNL     C2    2   0.181   0.069   0.141
    1UNL     C3    3   0.204   0.055   0.291
    1UNL     C4    4   0.253  -0.047   0.068
    1UNL     C5    5   0.391  -0.054   0.058
    1UNL     C6    6   0.450  -0.157  -0.011
    1UNL     C7    7   0.378  -0.258  -0.066
    1UNL     O1    8   0.428  -0.365  -0.142
    1UNL     C8    9   0.245  -0.253  -0.052
    1UNL     C9   10   0.176  -0.149   0.022
    1UNL     O2   11   0.041  -0.182   0.039
    1UNL    C10   12  -0.028  -0.088   0.122
    1UNL    C11   13  -0.177  -0.093   0.103
    1UNL    C12   14  -0.259  -0.056   0.208
    1UNL    C13   15  -0.395  -0.041   0.194
    1UNL    C14   16  -0.455  -0.074   0.072
    1UNL     O3   17  -0.588  -0.058   0.054
    1UNL    C15   18  -0.371  -0.110  -0.036
    1UNL    C16   19  -0.232  -0.128  -0.022
    1UNL     O4   20  -0.163  -0.172  -0.133
    1UNL    C17   21   0.023   0.060   0.117
    1UNL    C18   22  -0.039   0.138  -0.008
    1UNL    C19   23  -0.116   0.251  -0.012
    1UNL    C20   24  -0.172   0.296  -0.128
    1UNL     O5   25  -0.260   0.402  -0.137
    1UNL    C21   26  -0.138   0.230  -0.249
    1UNL    C22   27  -0.057   0.122  -0.250
    1UNL     O6   28  -0.030   0.062  -0.366
    1UNL    C23   29  -0.006   0.080  -0.128
    1UNL     H1   30   0.344   0.215   0.070
    1UNL     H2   31   0.197   0.208  -0.022
    1UNL     H3   32   0.182   0.285   0.136
    1UNL     H4   33   0.143   0.117   0.348
    1UNL     H5   34   0.169  -0.048   0.316
    1UNL     H6   35   0.313   0.059   0.311
    1UNL     H7   36   0.463   0.022   0.087
    1UNL     H8   37   0.562  -0.149  -0.027
    1UNL     H9   38   0.517  -0.339  -0.178
    1UNL    H10   39   0.194  -0.341  -0.097
    1UNL    H11   40  -0.008  -0.124   0.222
    1UNL    H12   41  -0.199  -0.021   0.292
    1UNL    H13   42  -0.454  -0.004   0.270
    1UNL    H14   43  -0.611  -0.081  -0.036
    1UNL    H15   44  -0.417  -0.133  -0.129
    1UNL    H16   45  -0.087  -0.228  -0.100
    1UNL    H17   46  -0.020   0.112   0.197
    1UNL    H18   47  -0.149   0.293   0.076
    1UNL    H19   48  -0.355   0.377  -0.119
    1UNL    H20   49  -0.185   0.263  -0.338
    1UNL    H21   50   0.030  -0.023  -0.354
    1UNL    H22   51   0.039  -0.021  -0.129
   0.00000   0.00000   0.00000   0.00000   0.00000   0.00000   0.00000   0.00000   0.00000
Generated with MDTraj, t= 96.0
 51
    1UNL     C1    1   0.219   0.201   0.081
    1UNL     C2    2   0.169   0.063   0.131
    1UNL     C3    3   0.183   0.064   0.291
    1UNL     C4    4   0.250  -0.049   0.076
    1UNL     C5    5   0.384  -0.037   0.069
    1UNL     C6    6   0.457  -0.138  -0.002
    1UNL     C7    7   0.390  -0.243  -0.069
    1UNL     O1    8   0.454  -0.339  -0.136
    1UNL     C8    9   0.251  -0.246  -0.059
    1UNL     C9   10   0.176  -0.157   0.012
    1UNL     O2   11   0.041  -0.177   0.020
    1UNL    C10   12  -0.030  -0.095   0.116
    1UNL    C11   13  -0.184  -0.100   0.109
    1UNL    C12   14  -0.266  -0.061   0.211
    1UNL    C13   15  -0.403  -0.059   0.212
    1UNL    C14   16  -0.473  -0.072   0.088
    1UNL     O3   17  -0.613  -0.062   0.075
    1UNL    C15   18  -0.400  -0.111  -0.028
    1UNL    C16   19  -0.259  -0.129  -0.013
    1UNL     O4   20  -0.190  -0.162  -0.125
    1UNL    C17   21   0.020   0.049   0.103
    1UNL    C18   22  -0.021   0.114  -0.024
    1UNL    C19   23  -0.094   0.231  -0.012
    1UNL    C20   24  -0.140   0.295  -0.128
    1UNL     O5   25  -0.206   0.419  -0.119
    1UNL    C21   26  -0.134   0.220  -0.254
    1UNL    C22   27  -0.047   0.112  -0.268
    1UNL     O6   28  -0.040   0.051  -0.392
    1UNL    C23   29   0.018   0.065  -0.151
    1UNL     H1   30   0.322   0.224   0.112
    1UNL     H2   31   0.224   0.203  -0.031
    1UNL     H3   32   0.144   0.281   0.114
    1UNL     H4   33   0.152   0.159   0.327
    1UNL     H5   34   0.120  -0.009   0.341
    1UNL     H6   35   0.289   0.048   0.316
    1UNL     H7   36   0.433   0.045   0.119
    1UNL     H8   37   0.560  -0.140  -0.005
    1UNL     H9   38   0.548  -0.311  -0.164
    1UNL    H10   39   0.189  -0.322  -0.092
    1UNL    H11   40   0.002  -0.127   0.215
    1UNL    H12   41  -0.213  -0.042   0.299
    1UNL    H13   42  -0.459  -0.020   0.300
    1UNL    H14   43  -0.635  -0.074  -0.018
    1UNL    H15   44  -0.449  -0.117  -0.124
    1UNL    H16   45  -0.101  -0.138  -0.096
    1UNL    H17   46  -0.030   0.095   0.184
    1UNL    H18   47  -0.111   0.272   0.088
    1UNL    H19   48  -0.206   0.455  -0.023
    1UNL    H20   49  -0.168   0.261  -0.348
    1UNL    H21   50   0.009  -0.038  -0.382
    1UNL    H22   51   0.077  -0.020  -0.160
   0.00000   0.00000   0.00000   0.00000   0.00000   0.00000   0.00000   0.00000   0.00000
Generated with MDTraj, t= 97.0
 51
    1UNL     C1    1   0.197   0.205   0.093
    1UNL     C2    2   0.153   0.064   0.137
    1UNL     C3    3   0.172   0.050   0.285
    1UNL     C4    4   0.229  -0.050   0.070
    1UNL     C5    5   0.367  -0.043   0.072
    1UNL     C6    6   0.449  -0.134   0.008
    1UNL     C7    7   0.394  -0.241  -0.059
    1UNL     O1    8   0.468  -0.339  -0.135
    1UNL     C8    9   0.250  -0.254  -0.054
    1UNL     C9   10   0.171  -0.157   0.005
    1UNL     O2   11   0.032  -0.177  -0.007
    1UNL    C10   12  -0.040  -0.107   0.104
    1UNL    C11   13  -0.187  -0.107   0.104
    1UNL    C12   14  -0.253  -0.078   0.220
    1UNL    C13   15  -0.390  -0.062   0.224
    1UNL    C14   16  -0.462  -0.086   0.108
    1UNL     O3   17  -0.597  -0.069   0.118
    1UNL    C15   18  -0.393  -0.119  -0.009
    1UNL    C16   19  -0.257  -0.144  -0.011
    1UNL     O4   20  -0.198  -0.199  -0.130
    1UNL    C17   21   0.004   0.048   0.099
    1UNL    C18   22  -0.034   0.123  -0.026
    1UNL    C19   23  -0.101   0.250  -0.026
    1UNL    C20   24  -0.128   0.321  -0.149
    1UNL     O5   25  -0.187   0.449  -0.157
    1UNL    C21   26  -0.085   0.264  -0.264
    1UNL    C22   27  -0.038   0.131  -0.268
    1UNL     O6   28  -0.021   0.057  -0.385
    1UNL    C23   29  -0.014   0.060  -0.150
    1UNL     H1   30   0.304   0.225   0.118
    1UNL     H2   31   0.196   0.208  -0.019
    1UNL     H3   32   0.127   0.288   0.128
    1UNL     H4   33   0.092   0.099   0.342
    1UNL     H5   34   0.152  -0.054   0.300
    1UNL     H6   35   0.269   0.074   0.324
    1UNL     H7   36   0.414   0.037   0.127
    1UNL     H8   37   0.558  -0.125   0.031
    1UNL     H9   38   0.558  -0.305  -0.168
    1UNL    H10   39   0.211  -0.351  -0.089
    1UNL    H11   40  -0.009  -0.150   0.200
    1UNL    H12   41  -0.192  -0.050   0.311
    1UNL    H13   42  -0.434  -0.030   0.314
    1UNL    H14   43  -0.635  -0.078   0.027
    1UNL    H15   44  -0.453  -0.139  -0.096
    1UNL    H16   45  -0.104  -0.208  -0.098
    1UNL    H17   46  -0.051   0.092   0.176
    1UNL    H18   47  -0.129   0.304   0.070
    1UNL    H19   48  -0.172   0.495  -0.071
    1UNL    H20   49  -0.104   0.321  -0.356
    1UNL    H21   50  -0.028  -0.040  -0.361
    1UNL    H22   51   0.033  -0.040  -0.162
   0.00000   0.00000   0.00000   0.00000   0.00000   0.00000   0.00000   0.00000   0.00000
Generated with MDTraj, t= 98.0
 51
    1UNL     C1    1   0.208   0.207   0.101
    1UNL     C2    2   0.150   0.064   0.140
    1UNL     C3    3   0.171   0.063   0.290
    1UNL     C4    4   0.230  -0.048   0.070
    1UNL     C5    5   0.371  -0.042   0.072
    1UNL     C6    6   0.444  -0.130  -0.000
    1UNL     C7    7   0.377  -0.238  -0.060
    1UNL     O1    8   0.452  -0.344  -0.112
    1UNL     C8    9   0.240  -0.236  -0.070
    1UNL     C9   10   0.167  -0.140  -0.010
    1UNL     O2   11   0.028  -0.162  -0.014
    1UNL    C10   12  -0.044  -0.088   0.093
    1UNL    C11   13  -0.192  -0.108   0.103
    1UNL    C12   14  -0.254  -0.076   0.221
    1UNL    C13   15  -0.394  -0.080   0.230
    1UNL    C14   16  -0.477  -0.116   0.124
    1UNL     O3   17  -0.614  -0.086   0.133
    1UNL    C15   18  -0.412  -0.171   0.017
    1UNL    C16   19  -0.273  -0.164   0.001
    1UNL     O4   20  -0.217  -0.218  -0.110
    1UNL    C17   21  -0.001   0.057   0.091
    1UNL    C18   22  -0.033   0.121  -0.041
    1UNL    C19   23  -0.072   0.250  -0.038
    1UNL    C20   24  -0.104   0.320  -0.155
    1UNL     O5   25  -0.158   0.447  -0.142
    1UNL    C21   26  -0.078   0.268  -0.276
    1UNL    C22   27  -0.029   0.136  -0.284
    1UNL     O6   28   0.016   0.096  -0.412
    1UNL    C23   29  -0.017   0.065  -0.163
    1UNL     H1   30   0.311   0.206   0.148
    1UNL     H2   31   0.227   0.230  -0.007
    1UNL     H3   32   0.155   0.295   0.146
    1UNL     H4   33   0.117   0.147   0.343
    1UNL     H5   34   0.147  -0.024   0.341
    1UNL     H6   35   0.271   0.085   0.311
    1UNL     H7   36   0.421   0.029   0.135
    1UNL     H8   37   0.552  -0.132   0.005
    1UNL     H9   38   0.545  -0.324  -0.091
    1UNL    H10   39   0.199  -0.323  -0.115
    1UNL    H11   40  -0.004  -0.119   0.193
    1UNL    H12   41  -0.197  -0.038   0.298
    1UNL    H13   42  -0.434  -0.027   0.316
    1UNL    H14   43  -0.649  -0.098   0.038
    1UNL    H15   44  -0.476  -0.199  -0.064
    1UNL    H16   45  -0.119  -0.213  -0.096
    1UNL    H17   46  -0.063   0.098   0.165
    1UNL    H18   47  -0.089   0.289   0.054
    1UNL    H19   48  -0.109   0.503  -0.081
    1UNL    H20   49  -0.130   0.310  -0.358
    1UNL    H21   50   0.034   0.001  -0.417
    1UNL    H22   51   0.031  -0.032  -0.164
   0.00000   0.00000   0.00000   0.00000   0.00000   0.00000   0.00000   0.00000   0.00000
Generated with MDTraj, t= 99.0
 51
    1UNL     C1    1   0.210   0.212   0.085
    1UNL     C2    2   0.153   0.072   0.133
    1UNL     C3    3   0.171   0.068   0.281
    1UNL     C4    4   0.223  -0.052   0.071
    1UNL     C5    5   0.363  -0.053   0.065
    1UNL     C6    6   0.436  -0.147   0.001
    1UNL     C7    7   0.377  -0.259  -0.058
    1UNL     O1    8   0.452  -0.344  -0.131
    1UNL     C8    9   0.240  -0.262  -0.057
    1UNL     C9   10   0.160  -0.167   0.003
    1UNL     O2   11   0.020  -0.171  -0.002
    1UNL    C10   12  -0.050  -0.086   0.098
    1UNL    C11   13  -0.205  -0.094   0.098
    1UNL    C12   14  -0.270  -0.036   0.203
    1UNL    C13   15  -0.402  -0.056   0.228
    1UNL    C14   16  -0.472  -0.130   0.130
    1UNL     O3   17  -0.607  -0.164   0.163
    1UNL    C15   18  -0.411  -0.180   0.016
    1UNL    C16   19  -0.274  -0.169  -0.002
    1UNL     O4   20  -0.209  -0.209  -0.113
    1UNL    C17   21  -0.003   0.068   0.098
    1UNL    C18   22  -0.041   0.133  -0.038
    1UNL    C19   23  -0.106   0.257  -0.045
    1UNL    C20   24  -0.100   0.341  -0.154
    1UNL     O5   25  -0.147   0.472  -0.158
    1UNL    C21   26  -0.047   0.285  -0.273
    1UNL    C22   27  -0.003   0.157  -0.279
    1UNL     O6   28   0.023   0.093  -0.401
    1UNL    C23   29   0.002   0.084  -0.158
    1UNL     H1   30   0.315   0.239   0.120
    1UNL     H2   31   0.210   0.211  -0.028
    1UNL     H3   32   0.146   0.298   0.113
    1UNL     H4   33   0.126   0.149   0.342
    1UNL     H5   34   0.132  -0.026   0.308
    1UNL     H6   35   0.272   0.073   0.307
    1UNL     H7   36   0.410   0.030   0.116
    1UNL     H8   37   0.541  -0.151   0.000
    1UNL     H9   38   0.544  -0.323  -0.134
    1UNL    H10   39   0.184  -0.347  -0.092
    1UNL    H11   40  -0.015  -0.129   0.195
    1UNL    H12   41  -0.209   0.029   0.272
    1UNL    H13   42  -0.452  -0.019   0.317
    1UNL    H14   43  -0.644  -0.223   0.088
    1UNL    H15   44  -0.469  -0.238  -0.056
    1UNL    H16   45  -0.116  -0.188  -0.096
    1UNL    H17   46  -0.055   0.127   0.168
    1UNL    H18   47  -0.149   0.304   0.050
    1UNL    H19   48  -0.134   0.521  -0.075
    1UNL    H20   49  -0.032   0.342  -0.366
    1UNL    H21   50   0.001   0.002  -0.387
    1UNL    H22   51   0.048  -0.010  -0.162
   0.00000   0.00000   0.00000   0.00000   0.00000   0.00000   0.00000   0.00000   0.00000
