[ moleculetype ]
; name        nrexcl
res           1

[ atoms ]
;    nr  type  resnr resid  atom  cgnr     charge       mass
      1 SC4       1 res   C1        1      0.000     54.000
      2 TC5       1 res   C2        2      0.000     36.000
      3 TC5       1 res   C3        3      0.000     36.000
      4 SN6       1 res   C4        4      0.000     54.000
      5 TN4a      1 res   C5        5      0.000     36.000
      6 TC5       1 res   C6        6      0.000     36.000
      7 SN6       1 res   C7        7      0.000     54.000
      8 SN6       1 res   C8        8      0.000     54.000
      9 SC5       1 res   C9        9      0.000     54.000
     10 SN6       1 res   C10      10      0.000     54.000
     11 SN6       1 res   C11      11      0.000     54.000

[ constraints ]
;  ai    aj   funct      b0(nm)
    1     2     1      0.27865
   10    11     1      0.33365
    2     3     1      0.24993
    9    11     1      0.33573
    6     8     1      0.30390
    3     4     1      0.28463
    7     8     1      0.32995
    5     6     1      0.24552
    9    10     1      0.33026
    6     7     1      0.30222
    2     4     1      0.29077

[ bonds ]
;  ai    aj   funct      b0(nm)          k(kJ/mol/nm^2)
    2     5     1      0.22601          16928.3
    5     9     1      0.24291          13620.5
    1     9     1      0.28603           7953.5

[ angles ]
;  ai    aj    ak  funct     th0(deg)        k(kJ/mol/rad^2)
    1     2     3     1     86.76036           738.04
    1     2     4     1    148.35334           906.12
    1     2     5     1     87.28153           475.96
    1     9     5     1     82.39187           399.97
    1     9    10     1    111.96168            45.38
    1     9    11     1    131.85344           103.96
    2     1     9     1     61.15492            89.98
    2     3     4     1     65.53079          5777.55
    2     4     3     1     51.47519          7742.38
    2     5     6     1    154.11952           203.23
    2     5     9     1     75.65749            67.24
    3     2     4     1     62.99399          5114.01
    3     2     5     1    161.11346           171.71
    4     2     5     1    122.16561           484.15
    5     6     7     1    138.58796          1328.00
    5     6     8     1     73.63972          1287.28
    5     9    10     1    139.89758            42.84
    5     9    11     1    135.73009           220.53
    6     5     9     1     83.85120            86.62
    6     7     8     1     57.26612          4401.55
    6     8     7     1     56.77073          8461.99
    7     6     8     1     65.96301          5367.78
    9    10    11     1     60.74770          4874.88
    9    11    10     1     59.12395          4272.85
   10     9    11     1     60.12818          2861.80

[ dihedrals ]
;  ai    aj    ak    al  funct   phi0(deg)        k(kJ/mol)   mult
    1     2     3     4     1      0.17262       16.383      1
    1     2     4     3     1   -178.36279       24.409      1
    1     2     5     6     1   -164.62363       28.950      1
    1     2     5     9     1   -142.14966       18.515      1
    1     9     5     2     1    148.17928       16.929      1
    1     9     5     6     1    -44.72155       18.998      1
    1     9    10    11     1    -51.20370       17.161      1
    1     9    11    10     1     85.72062       24.563      1
    2     1     9     5     1   -149.64472       17.307      1
    2     1     9    10     1     -1.44094       26.000      1
    2     1     9    11     1     65.31338       19.154      1
    2     5     6     7     1    -59.25225       31.086      1
    2     5     6     8     1    -65.17596       29.109      1
    2     5     9    10     1     25.26866       26.751      1
    2     5     9    11     1    -75.31570       20.670      1
    3     2     1     9     1    -26.10866       23.401      1
    3     2     5     6     1   -105.76340       27.523      1
    3     2     5     9     1    -81.12421       25.026      1
    3     4     2     5     1     17.88036       16.382      1
    4     2     1     9     1    -27.93589       24.163      1
    4     2     5     6     1      5.28920       31.458      1
    4     2     5     9     1     33.08802       20.798      1
    4     3     2     5     1    -49.02253       25.166      1
    5     2     1     9     1    146.08264       18.551      1
    5     6     7     8     1    170.19713       16.423      1
    5     6     8     7     1     -6.04310       12.204      1
    5     9    10    11     1     40.98357       20.918      1
    5     9    11    10     1    -43.98110       26.982      1
    6     5     9    10     1   -162.49198       30.872      1
    6     5     9    11     1     91.58565       21.494      1
    7     6     5     9     1    -92.18297       19.637      1
    8     6     5     9     1    -96.89649       15.742      1
