[ moleculetype ]
; name        nrexcl
res           1

[ atoms ]
;    nr  type  resnr resid  atom  cgnr     charge       mass
      1 SC4       1 res   C1        1      0.000     54.000
      2 TC3       1 res   C2        2      0.000     36.000
      3 SC3       1 res   C3        3      0.000     54.000
      4 SP2       1 res   C4        4      0.000     54.000
      5 TC3       1 res   C5        5      0.000     36.000
      6 SC4       1 res   C6        6      0.000     54.000
      7 TC3       1 res   C7        7      0.000     36.000
      8 SC4       1 res   C8        8      0.000     54.000
      9 SC4       1 res   C9        9      0.000     54.000
     10 TC3       1 res   C10      10      0.000     36.000
     11 TN6       1 res   C11      11      0.000     36.000
     12 SC4       1 res   C12      12      0.000     54.000
     13 TC3       1 res   C13      13      0.000     36.000

[ constraints ]
;  ai    aj   funct      b0(nm)
    1     2     1      0.27855
   10    11     1      0.26755
    3     5     1      0.30008
    2     3     1      0.20043
    6     8     1      0.26456
    3     4     1      0.25501
    7     8     1      0.28886
    5     6     1      0.27623
    9    10     1      0.28360
    8    13     1      0.25399
    6     7     1      0.37001
    9    13     1      0.36307
    9    12     1      0.33083
    3     6     1      0.36296
    8     9     1      0.36537

[ bonds ]
;  ai    aj   funct      b0(nm)          k(kJ/mol/nm^2)
   11    12     1      0.25096          14176.1

[ angles ]
;  ai    aj    ak  funct     th0(deg)        k(kJ/mol/rad^2)
    1     2     3     1    125.65650           388.01
    2     3     4     1    159.17895           159.42
    2     3     5     1    116.93588           339.99
    2     3     6     1     76.31071           833.35
    3     5     6     1     77.95113          1354.12
    3     6     5     1     53.95147          2826.54
    3     6     7     1     79.88727          1413.70
    3     6     8     1    129.27192           699.69
    4     3     5     1     79.17444           334.06
    4     3     6     1    111.05792           287.89
    5     3     6     1     48.09724          2961.30
    5     6     7     1     81.93228          1854.49
    5     6     8     1    101.88523          1632.52
    6     7     8     1     45.27123          4937.90
    6     8     7     1     83.82659          1334.73
    6     8     9     1    129.61398           774.44
    6     8    13     1    100.54322           878.04
    7     6     8     1     50.90197          2064.34
    7     8     9     1     71.89659          1240.13
    7     8    13     1    132.03902           739.74
    8     9    10     1     70.96136          1662.06
    8     9    12     1    103.86390          1027.20
    8     9    13     1     40.78898          5825.89
    8    13     9     1     70.08772          1867.90
    9     8    13     1     69.12307          1760.12
    9    10    11     1     94.79015           503.88
    9    12    11     1     87.23484          1152.97
   10     9    12     1     78.88570          1442.13
   10     9    13     1     85.95613          1071.15
   10    11    12     1     98.26162           655.74
   12     9    13     1     69.91633          2790.86

[ dihedrals ]
;  ai    aj    ak    al  funct   phi0(deg)        k(kJ/mol)   mult
    1     2     3     4     1     92.10900       23.656      1
    1     2     3     5     1   -134.57571       14.586      1
    1     2     3     6     1   -159.87640       14.774      1
    2     3     5     6     1    145.97265       10.695      1
    2     3     6     5     1    -30.89371       11.442      1
    2     3     6     7     1     56.35572       10.685      1
    2     3     6     8     1     44.04913       10.784      1
    3     5     6     7     1     96.96627        7.003      1
    3     5     6     8     1     49.97981        7.823      1
    3     6     7     8     1     13.93506        7.763      1
    3     6     8     7     1   -162.26911        9.234      1
    3     6     8     9     1    137.90133       12.231      1
    3     6     8    13     1     64.97348       11.483      1
    4     3     5     6     1    -47.62171       10.733      1
    4     3     6     5     1    128.97023       11.480      1
    4     3     6     7     1   -143.04369       11.496      1
    4     3     6     8     1   -156.67043       12.865      1
    5     3     6     7     1    -92.05542        6.288      1
    5     3     6     8     1   -105.02952        7.087      1
    5     6     7     8     1     67.94049        6.295      1
    5     6     8     7     1   -110.99358        7.014      1
    5     6     8     9     1   -170.97945       11.496      1
    5     6     8    13     1    116.10206        9.318      1
    6     7     8     9     1    -44.94928        7.075      1
    6     7     8    13     1    -81.03293        8.498      1
    6     8     9    10     1    -12.72855       11.406      1
    6     8     9    12     1     59.19266       11.409      1
    6     8     9    13     1     94.12750        9.193      1
    6     8    13     9     1    -51.01559        7.082      1
    7     6     8     9     1    120.89607        9.962      1
    7     6     8    13     1     47.96235        7.766      1
    7     8     9    10     1    -78.94356        9.986      1
    7     8     9    12     1     -5.48461        9.240      1
    7     8     9    13     1     27.09204        7.064      1
    7     8    13     9     1   -143.01583       10.004      1
    8     9    10    11     1    -67.92554        9.313      1
    8     9    12    11     1    108.04276       10.754      1
    8    13     9    10     1   -114.05249        7.781      1
    8    13     9    12     1    -35.15661       10.014      1
    9    10    11    12     1    174.05034       10.789      1
    9    12    11    10     1   -175.03511       10.030      1
   10     9     8    13     1     73.95572        9.242      1
   10     9    12    11     1    175.03527        8.590      1
   11    10     9    12     1   -176.17172        7.843      1
   11    10     9    13     1   -106.78696        9.971      1
   11    12     9    13     1     85.06563       10.060      1
   12     9     8    13     1    146.94446        8.570      1
