1TPCN04263
11
    1res  C1    1    0.650  -0.012  -0.190
    1res  C2    2    0.493  -0.074   0.202
    1res  C3    3    0.222   0.102   0.248
    1res  C4    4    0.134   0.110  -0.034
    1res  C5    5    0.027  -0.226   0.066
    1res  C6    6   -0.118   0.044   0.173
    1res  C7    7   -0.358  -0.150   0.017
    1res  C8    8   -0.302  -0.043  -0.262
    1res  C9    9   -0.563  -0.074  -0.258
    1res  C10   10   -0.617   0.060  -0.017
    1res  C11   11   -0.254   0.228  -0.002
  10.00000  10.00000  10.00000
