1TPCN06068
32
    1res  C1    1   -1.205   0.058   0.193
    1res  C2    2   -0.983   0.187   0.238
    1res  C3    3   -0.871   0.306   0.021
    1res  C4    4   -0.697   0.377  -0.194
    1res  C5    5   -0.585   0.297   0.073
    1res  C6    6   -0.420  -0.039   0.154
    1res  C7    7   -0.221   0.241   0.058
    1res  C8    8   -0.279   0.046  -0.104
    1res  C9    9   -0.014  -0.152   0.062
    1res  C10   10    0.130   0.113   0.034
    1res  C11   11    0.254   0.024  -0.154
    1res  C12   12    0.458  -0.137  -0.082
    1res  C13   13    0.533  -0.448  -0.010
    1res  C14   14    0.672  -0.149   0.140
    1res  C15   15    0.689   0.025  -0.009
    1res  C16   16    0.871   0.151   0.205
    1res  C17   17    1.012   0.386   0.204
    1res  C18   18    1.096   0.218   0.047
    1res  C19   19    1.221   0.075  -0.048
    1res  C20   20    1.301  -0.041  -0.256
    1res  C21   21    1.427  -0.228  -0.076
    1res  C22   22    1.366  -0.150   0.143
    1res  C23   23    1.373   0.072   0.137
    1res  C24   24    0.901   0.170  -0.090
    1res  C25   25    0.475   0.079   0.006
    1res  C26   26    0.024   0.062  -0.312
    1res  C27   27    0.182  -0.196  -0.338
    1res  C28   28   -0.213  -0.204  -0.155
    1res  C29   29   -0.693  -0.041  -0.017
    1res  C30   30   -0.619  -0.210  -0.150
    1res  C31   31   -0.598  -0.516  -0.053
    1res  C32   32   -0.713   0.065   0.330
  10.00000  10.00000  10.00000
