Generated with MDTraj, t= 0.0
 83
    1UNL     C1    1   0.017  -0.397  -0.145
    1UNL     C2    2  -0.121  -0.356  -0.109
    1UNL     C3    3  -0.218  -0.450  -0.079
    1UNL     C4    4  -0.345  -0.411  -0.041
    1UNL     C5    5  -0.378  -0.277  -0.032
    1UNL     C6    6  -0.517  -0.233   0.009
    1UNL     C7    7  -0.623  -0.282  -0.089
    1UNL     C8    8  -0.549  -0.275   0.153
    1UNL     C9    9  -0.281  -0.183  -0.062
    1UNL    C10   10  -0.153  -0.220  -0.100
    1UNL     O1   11  -0.052  -0.127  -0.128
    1UNL    C11   12  -0.067  -0.004  -0.056
    1UNL     O2   13  -0.182   0.072  -0.100
    1UNL    C12   14  -0.172   0.212  -0.074
    1UNL    C13   15  -0.307   0.280  -0.090
    1UNL     O3   16  -0.308   0.407  -0.030
    1UNL    C14   17  -0.435   0.439   0.006
    1UNL     O4   18  -0.531   0.368  -0.015
    1UNL    C15   19  -0.452   0.569   0.079
    1UNL    C16   20  -0.460   0.549   0.227
    1UNL     O5   21  -0.370   0.495   0.286
    1UNL     O6   22  -0.570   0.596   0.289
    1UNL    C17   23  -0.063   0.275  -0.168
    1UNL     O7   24  -0.119   0.309  -0.292
    1UNL    C18   25   0.053   0.173  -0.190
    1UNL     O8   26   0.026   0.093  -0.304
    1UNL    C19   27   0.066   0.079  -0.067
    1UNL     O9   28   0.180  -0.004  -0.084
    1UNL    C20   29   0.185  -0.106   0.013
    1UNL    O10   30   0.191  -0.058   0.148
    1UNL    C21   31   0.317   0.000   0.185
    1UNL    C22   32   0.345   0.133   0.114
    1UNL    O11   33   0.477   0.177   0.141
    1UNL    C23   34   0.557   0.158   0.033
    1UNL    O12   35   0.517   0.124  -0.076
    1UNL    C24   36   0.704   0.177   0.054
    1UNL    C25   37   0.781   0.049   0.041
    1UNL    O13   38   0.739  -0.055   0.086
    1UNL    O14   39   0.901   0.058  -0.020
    1UNL    C26   40   0.432  -0.101   0.164
    1UNL    O15   41   0.420  -0.211   0.252
    1UNL    C27   42   0.435  -0.148   0.016
    1UNL    O16   43   0.540  -0.239  -0.003
    1UNL    C28   44   0.297  -0.208  -0.019
    1UNL    O17   45   0.276  -0.329   0.050
    1UNL     H1   46   0.080  -0.401  -0.056
    1UNL     H2   47   0.019  -0.494  -0.193
    1UNL     H3   48   0.061  -0.324  -0.214
    1UNL     H4   49  -0.193  -0.555  -0.084
    1UNL     H5   50  -0.419  -0.485  -0.017
    1UNL     H6   51  -0.518  -0.122   0.007
    1UNL     H7   52  -0.722  -0.244  -0.063
    1UNL     H8   53  -0.629  -0.391  -0.089
    1UNL     H9   54  -0.601  -0.250  -0.191
    1UNL    H10   55  -0.551  -0.384   0.162
    1UNL    H11   56  -0.646  -0.238   0.185
    1UNL    H12   57  -0.474  -0.238   0.223
    1UNL    H13   58  -0.306  -0.079  -0.057
    1UNL    H14   59  -0.085  -0.031   0.049
    1UNL    H15   60  -0.141   0.221   0.031
    1UNL    H16   61  -0.386   0.220  -0.043
    1UNL    H17   62  -0.332   0.293  -0.196
    1UNL    H18   63  -0.368   0.634   0.055
    1UNL    H19   64  -0.544   0.617   0.044
    1UNL    H20   65  -0.561   0.576   0.384
    1UNL    H21   66  -0.026   0.369  -0.124
    1UNL    H22   67  -0.120   0.229  -0.349
    1UNL    H23   68   0.148   0.224  -0.211
    1UNL    H24   69  -0.007   0.007  -0.270
    1UNL    H25   70   0.082   0.138   0.025
    1UNL    H26   71   0.090  -0.160   0.008
    1UNL    H27   72   0.308   0.019   0.293
    1UNL    H28   73   0.333   0.121   0.006
    1UNL    H29   74   0.275   0.211   0.147
    1UNL    H30   75   0.742   0.249  -0.019
    1UNL    H31   76   0.721   0.220   0.154
    1UNL    H32   77   0.940  -0.032  -0.021
    1UNL    H33   78   0.529  -0.052   0.186
    1UNL    H34   79   0.423  -0.181   0.345
    1UNL    H35   80   0.454  -0.063  -0.052
    1UNL    H36   81   0.622  -0.192   0.026
    1UNL    H37   82   0.295  -0.233  -0.127
    1UNL    H38   83   0.321  -0.317   0.137
   0.00000   0.00000   0.00000   0.00000   0.00000   0.00000   0.00000   0.00000   0.00000
Generated with MDTraj, t= 1.0
 83
    1UNL     C1    1  -0.010  -0.408  -0.193
    1UNL     C2    2  -0.133  -0.356  -0.126
    1UNL     C3    3  -0.230  -0.451  -0.092
    1UNL     C4    4  -0.358  -0.415  -0.034
    1UNL     C5    5  -0.380  -0.278  -0.016
    1UNL     C6    6  -0.510  -0.229   0.045
    1UNL     C7    7  -0.630  -0.221  -0.061
    1UNL     C8    8  -0.545  -0.299   0.176
    1UNL     C9    9  -0.285  -0.180  -0.051
    1UNL    C10   10  -0.162  -0.216  -0.113
    1UNL     O1   11  -0.061  -0.130  -0.147
    1UNL    C11   12  -0.079  -0.008  -0.071
    1UNL     O2   13  -0.191   0.076  -0.121
    1UNL    C12   14  -0.182   0.214  -0.084
    1UNL    C13   15  -0.305   0.290  -0.117
    1UNL     O3   16  -0.322   0.412  -0.047
    1UNL    C14   17  -0.451   0.439  -0.005
    1UNL     O4   18  -0.538   0.358  -0.017
    1UNL    C15   19  -0.449   0.565   0.081
    1UNL    C16   20  -0.464   0.541   0.222
    1UNL     O5   21  -0.381   0.477   0.281
    1UNL     O6   22  -0.561   0.608   0.291
    1UNL    C17   23  -0.062   0.272  -0.162
    1UNL     O7   24  -0.094   0.314  -0.295
    1UNL    C18   25   0.061   0.171  -0.178
    1UNL     O8   26   0.049   0.096  -0.297
    1UNL    C19   27   0.058   0.064  -0.064
    1UNL     O9   28   0.183  -0.009  -0.066
    1UNL    C20   29   0.190  -0.113   0.029
    1UNL    O10   30   0.198  -0.064   0.165
    1UNL    C21   31   0.321  -0.016   0.199
    1UNL    C22   32   0.354   0.120   0.128
    1UNL    O11   33   0.491   0.158   0.136
    1UNL    C23   34   0.558   0.161   0.019
    1UNL    O12   35   0.511   0.141  -0.088
    1UNL    C24   36   0.708   0.200   0.032
    1UNL    C25   37   0.798   0.079   0.041
    1UNL    O13   38   0.757  -0.032   0.064
    1UNL    O14   39   0.923   0.108   0.007
    1UNL    C26   40   0.432  -0.118   0.179
    1UNL    O15   41   0.406  -0.228   0.262
    1UNL    C27   42   0.435  -0.156   0.026
    1UNL    O16   43   0.529  -0.252   0.008
    1UNL    C28   44   0.301  -0.218  -0.005
    1UNL    O17   45   0.286  -0.343   0.059
    1UNL     H1   46   0.040  -0.475  -0.130
    1UNL     H2   47  -0.035  -0.458  -0.289
    1UNL     H3   48   0.061  -0.323  -0.197
    1UNL     H4   49  -0.202  -0.552  -0.110
    1UNL     H5   50  -0.434  -0.489  -0.016
    1UNL     H6   51  -0.494  -0.122   0.073
    1UNL     H7   52  -0.704  -0.144  -0.088
    1UNL     H8   53  -0.688  -0.309  -0.047
    1UNL     H9   54  -0.577  -0.247  -0.154
    1UNL    H10   55  -0.562  -0.408   0.175
    1UNL    H11   56  -0.644  -0.265   0.198
    1UNL    H12   57  -0.478  -0.267   0.258
    1UNL    H13   58  -0.310  -0.079  -0.039
    1UNL    H14   59  -0.092  -0.035   0.038
    1UNL    H15   60  -0.150   0.212   0.018
    1UNL    H16   61  -0.395   0.231  -0.100
    1UNL    H17   62  -0.303   0.316  -0.224
    1UNL    H18   63  -0.347   0.602   0.064
    1UNL    H19   64  -0.510   0.643   0.041
    1UNL    H20   65  -0.562   0.569   0.378
    1UNL    H21   66  -0.028   0.369  -0.121
    1UNL    H22   67  -0.114   0.238  -0.348
    1UNL    H23   68   0.157   0.219  -0.184
    1UNL    H24   69   0.021  -0.000  -0.274
    1UNL    H25   70   0.076   0.125   0.023
    1UNL    H26   71   0.097  -0.172   0.020
    1UNL    H27   72   0.314   0.001   0.304
    1UNL    H28   73   0.347   0.095   0.020
    1UNL    H29   74   0.283   0.205   0.149
    1UNL    H30   75   0.719   0.252  -0.068
    1UNL    H31   76   0.733   0.271   0.107
    1UNL    H32   77   0.967   0.020   0.004
    1UNL    H33   78   0.529  -0.075   0.197
    1UNL    H34   79   0.334  -0.286   0.219
    1UNL    H35   80   0.456  -0.070  -0.044
    1UNL    H36   81   0.618  -0.206   0.023
    1UNL    H37   82   0.306  -0.251  -0.113
    1UNL    H38   83   0.363  -0.391   0.024
   0.00000   0.00000   0.00000   0.00000   0.00000   0.00000   0.00000   0.00000   0.00000
Generated with MDTraj, t= 2.0
 83
    1UNL     C1    1  -0.032  -0.397  -0.221
    1UNL     C2    2  -0.155  -0.359  -0.141
    1UNL     C3    3  -0.258  -0.439  -0.117
    1UNL     C4    4  -0.368  -0.398  -0.053
    1UNL     C5    5  -0.384  -0.270  -0.007
    1UNL     C6    6  -0.506  -0.219   0.063
    1UNL     C7    7  -0.625  -0.196  -0.034
    1UNL     C8    8  -0.543  -0.313   0.189
    1UNL     C9    9  -0.285  -0.180  -0.033
    1UNL    C10   10  -0.165  -0.220  -0.096
    1UNL     O1   11  -0.053  -0.133  -0.111
    1UNL    C11   12  -0.066  -0.005  -0.053
    1UNL     O2   13  -0.175   0.064  -0.112
    1UNL    C12   14  -0.165   0.208  -0.080
    1UNL    C13   15  -0.296   0.281  -0.114
    1UNL     O3   16  -0.304   0.406  -0.049
    1UNL    C14   17  -0.431   0.420  -0.011
    1UNL     O4   18  -0.513   0.338  -0.029
    1UNL    C15   19  -0.455   0.554   0.060
    1UNL    C16   20  -0.464   0.529   0.213
    1UNL     O5   21  -0.389   0.451   0.265
    1UNL     O6   22  -0.552   0.608   0.285
    1UNL    C17   23  -0.039   0.273  -0.155
    1UNL     O7   24  -0.082   0.321  -0.276
    1UNL    C18   25   0.073   0.169  -0.182
    1UNL     O8   26   0.054   0.091  -0.293
    1UNL    C19   27   0.069   0.070  -0.057
    1UNL     O9   28   0.182  -0.009  -0.071
    1UNL    C20   29   0.185  -0.117   0.021
    1UNL    O10   30   0.192  -0.066   0.157
    1UNL    C21   31   0.308  -0.007   0.197
    1UNL    C22   32   0.350   0.126   0.121
    1UNL    O11   33   0.481   0.169   0.133
    1UNL    C23   34   0.545   0.162   0.011
    1UNL    O12   35   0.497   0.134  -0.091
    1UNL    C24   36   0.690   0.196   0.021
    1UNL    C25   37   0.782   0.081   0.026
    1UNL    O13   38   0.743  -0.033   0.024
    1UNL    O14   39   0.916   0.113   0.047
    1UNL    C26   40   0.424  -0.106   0.191
    1UNL    O15   41   0.399  -0.222   0.271
    1UNL    C27   42   0.439  -0.147   0.038
    1UNL    O16   43   0.540  -0.240   0.012
    1UNL    C28   44   0.307  -0.215  -0.009
    1UNL    O17   45   0.291  -0.350   0.033
    1UNL     H1   46   0.018  -0.472  -0.167
    1UNL     H2   47  -0.053  -0.439  -0.322
    1UNL     H3   48   0.045  -0.316  -0.207
    1UNL     H4   49  -0.261  -0.543  -0.157
    1UNL     H5   50  -0.435  -0.481  -0.032
    1UNL     H6   51  -0.489  -0.115   0.102
    1UNL     H7   52  -0.710  -0.252   0.005
    1UNL     H8   53  -0.616  -0.246  -0.127
    1UNL     H9   54  -0.654  -0.090  -0.054
    1UNL    H10   55  -0.615  -0.396   0.166
    1UNL    H11   56  -0.598  -0.270   0.267
    1UNL    H12   57  -0.443  -0.343   0.229
    1UNL    H13   58  -0.291  -0.080   0.017
    1UNL    H14   59  -0.087  -0.021   0.059
    1UNL    H15   60  -0.149   0.217   0.023
    1UNL    H16   61  -0.374   0.216  -0.072
    1UNL    H17   62  -0.321   0.301  -0.222
    1UNL    H18   63  -0.364   0.614   0.043
    1UNL    H19   64  -0.527   0.618   0.013
    1UNL    H20   65  -0.547   0.599   0.377
    1UNL    H21   66  -0.003   0.360  -0.096
    1UNL    H22   67  -0.106   0.237  -0.334
    1UNL    H23   68   0.169   0.212  -0.188
    1UNL    H24   69   0.007   0.011  -0.271
    1UNL    H25   70   0.085   0.129   0.032
    1UNL    H26   71   0.092  -0.174  -0.001
    1UNL    H27   72   0.292   0.019   0.298
    1UNL    H28   73   0.317   0.124   0.014
    1UNL    H29   74   0.305   0.217   0.176
    1UNL    H30   75   0.722   0.255  -0.070
    1UNL    H31   76   0.693   0.256   0.106
    1UNL    H32   77   0.960   0.032   0.081
    1UNL    H33   78   0.513  -0.058   0.228
    1UNL    H34   79   0.394  -0.303   0.221
    1UNL    H35   80   0.441  -0.048  -0.021
    1UNL    H36   81   0.619  -0.189   0.018
    1UNL    H37   82   0.307  -0.219  -0.124
    1UNL    H38   83   0.381  -0.394   0.005
   0.00000   0.00000   0.00000   0.00000   0.00000   0.00000   0.00000   0.00000   0.00000
Generated with MDTraj, t= 3.0
 83
    1UNL     C1    1  -0.046  -0.384  -0.224
    1UNL     C2    2  -0.163  -0.334  -0.152
    1UNL     C3    3  -0.278  -0.408  -0.160
    1UNL     C4    4  -0.385  -0.373  -0.071
    1UNL     C5    5  -0.382  -0.252  -0.003
    1UNL     C6    6  -0.495  -0.213   0.088
    1UNL     C7    7  -0.616  -0.179  -0.001
    1UNL     C8    8  -0.537  -0.323   0.182
    1UNL     C9    9  -0.275  -0.172  -0.017
    1UNL    C10   10  -0.163  -0.206  -0.096
    1UNL     O1   11  -0.052  -0.132  -0.097
    1UNL    C11   12  -0.054  -0.005  -0.035
    1UNL     O2   13  -0.168   0.070  -0.094
    1UNL    C12   14  -0.156   0.209  -0.068
    1UNL    C13   15  -0.296   0.266  -0.099
    1UNL     O3   16  -0.300   0.390  -0.055
    1UNL    C14   17  -0.433   0.419  -0.021
    1UNL     O4   18  -0.525   0.344  -0.047
    1UNL    C15   19  -0.460   0.543   0.059
    1UNL    C16   20  -0.466   0.526   0.208
    1UNL     O5   21  -0.397   0.440   0.257
    1UNL     O6   22  -0.546   0.601   0.285
    1UNL    C17   23  -0.040   0.266  -0.159
    1UNL     O7   24  -0.082   0.321  -0.274
    1UNL    C18   25   0.065   0.156  -0.191
    1UNL     O8   26   0.028   0.077  -0.305
    1UNL    C19   27   0.085   0.063  -0.059
    1UNL     O9   28   0.195  -0.021  -0.089
    1UNL    C20   29   0.204  -0.125   0.008
    1UNL    O10   30   0.199  -0.077   0.141
    1UNL    C21   31   0.315  -0.011   0.186
    1UNL    C22   32   0.338   0.136   0.124
    1UNL    O11   33   0.469   0.187   0.133
    1UNL    C23   34   0.527   0.166   0.009
    1UNL    O12   35   0.476   0.130  -0.094
    1UNL    C24   36   0.678   0.197   0.018
    1UNL    C25   37   0.766   0.073   0.042
    1UNL    O13   38   0.735  -0.038   0.006
    1UNL    O14   39   0.888   0.102   0.085
    1UNL    C26   40   0.440  -0.108   0.175
    1UNL    O15   41   0.422  -0.203   0.277
    1UNL    C27   42   0.453  -0.163   0.027
    1UNL    O16   43   0.569  -0.244   0.020
    1UNL    C28   44   0.323  -0.227  -0.014
    1UNL    O17   45   0.304  -0.344   0.061
    1UNL     H1   46   0.011  -0.446  -0.155
    1UNL     H2   47  -0.064  -0.440  -0.315
    1UNL     H3   48   0.030  -0.303  -0.228
    1UNL     H4   49  -0.281  -0.498  -0.213
    1UNL     H5   50  -0.474  -0.431  -0.064
    1UNL     H6   51  -0.469  -0.116   0.143
    1UNL     H7   52  -0.682  -0.110   0.051
    1UNL     H8   53  -0.679  -0.260  -0.036
    1UNL     H9   54  -0.574  -0.124  -0.088
    1UNL    H10   55  -0.524  -0.423   0.130
    1UNL    H11   56  -0.638  -0.342   0.207
    1UNL    H12   57  -0.467  -0.317   0.267
    1UNL    H13   58  -0.267  -0.089   0.046
    1UNL    H14   59  -0.086  -0.013   0.076
    1UNL    H15   60  -0.134   0.228   0.035
    1UNL    H16   61  -0.377   0.212  -0.047
    1UNL    H17   62  -0.316   0.267  -0.210
    1UNL    H18   63  -0.403   0.634   0.038
    1UNL    H19   64  -0.559   0.575   0.035
    1UNL    H20   65  -0.515   0.572   0.371
    1UNL    H21   66   0.002   0.345  -0.096
    1UNL    H22   67  -0.095   0.244  -0.329
    1UNL    H23   68   0.156   0.195  -0.221
    1UNL    H24   69  -0.007  -0.014  -0.285
    1UNL    H25   70   0.103   0.111   0.038
    1UNL    H26   71   0.116  -0.188  -0.019
    1UNL    H27   72   0.298  -0.001   0.289
    1UNL    H28   73   0.318   0.120   0.016
    1UNL    H29   74   0.262   0.211   0.161
    1UNL    H30   75   0.707   0.265  -0.068
    1UNL    H31   76   0.699   0.251   0.105
    1UNL    H32   77   0.932   0.018   0.112
    1UNL    H33   78   0.541  -0.065   0.189
    1UNL    H34   79   0.327  -0.237   0.280
    1UNL    H35   80   0.469  -0.069  -0.041
    1UNL    H36   81   0.647  -0.187   0.026
    1UNL    H37   82   0.338  -0.264  -0.122
    1UNL    H38   83   0.390  -0.360   0.096
   0.00000   0.00000   0.00000   0.00000   0.00000   0.00000   0.00000   0.00000   0.00000
Generated with MDTraj, t= 4.0
 83
    1UNL     C1    1  -0.077  -0.375  -0.272
    1UNL     C2    2  -0.174  -0.336  -0.163
    1UNL     C3    3  -0.292  -0.406  -0.165
    1UNL     C4    4  -0.400  -0.365  -0.093
    1UNL     C5    5  -0.386  -0.253  -0.008
    1UNL     C6    6  -0.494  -0.202   0.088
    1UNL     C7    7  -0.627  -0.150   0.009
    1UNL     C8    8  -0.530  -0.306   0.189
    1UNL     C9    9  -0.266  -0.187  -0.009
    1UNL    C10   10  -0.163  -0.218  -0.094
    1UNL     O1   11  -0.049  -0.140  -0.099
    1UNL    C11   12  -0.058  -0.011  -0.035
    1UNL     O2   13  -0.176   0.063  -0.080
    1UNL    C12   14  -0.151   0.204  -0.067
    1UNL    C13   15  -0.285   0.264  -0.088
    1UNL     O3   16  -0.306   0.386  -0.026
    1UNL    C14   17  -0.437   0.416  -0.015
    1UNL     O4   18  -0.523   0.352  -0.070
    1UNL    C15   19  -0.475   0.538   0.055
    1UNL    C16   20  -0.466   0.522   0.209
    1UNL     O5   21  -0.395   0.432   0.251
    1UNL     O6   22  -0.549   0.597   0.286
    1UNL    C17   23  -0.035   0.258  -0.170
    1UNL     O7   24  -0.089   0.303  -0.290
    1UNL    C18   25   0.060   0.136  -0.196
    1UNL     O8   26   0.005   0.058  -0.298
    1UNL    C19   27   0.073   0.066  -0.061
    1UNL     O9   28   0.182  -0.015  -0.076
    1UNL    C20   29   0.193  -0.121   0.028
    1UNL    O10   30   0.212  -0.075   0.158
    1UNL    C21   31   0.335  -0.008   0.185
    1UNL    C22   32   0.352   0.131   0.113
    1UNL    O11   33   0.484   0.175   0.117
    1UNL    C23   34   0.547   0.169  -0.005
    1UNL    O12   35   0.498   0.133  -0.111
    1UNL    C24   36   0.689   0.206   0.011
    1UNL    C25   37   0.774   0.089   0.056
    1UNL    O13   38   0.740  -0.028   0.031
    1UNL    O14   39   0.879   0.117   0.141
    1UNL    C26   40   0.453  -0.100   0.168
    1UNL    O15   41   0.456  -0.200   0.265
    1UNL    C27   42   0.451  -0.160   0.018
    1UNL    O16   43   0.566  -0.250   0.011
    1UNL    C28   44   0.314  -0.222  -0.007
    1UNL    O17   45   0.305  -0.348   0.066
    1UNL     H1   46  -0.003  -0.440  -0.219
    1UNL     H2   47  -0.113  -0.441  -0.346
    1UNL     H3   48  -0.016  -0.298  -0.317
    1UNL     H4   49  -0.303  -0.493  -0.233
    1UNL     H5   50  -0.491  -0.427  -0.101
    1UNL     H6   51  -0.450  -0.112   0.144
    1UNL     H7   52  -0.710  -0.132   0.078
    1UNL     H8   53  -0.672  -0.213  -0.068
    1UNL     H9   54  -0.599  -0.053  -0.034
    1UNL    H10   55  -0.623  -0.359   0.157
    1UNL    H11   56  -0.562  -0.267   0.283
    1UNL    H12   57  -0.448  -0.373   0.217
    1UNL    H13   58  -0.238  -0.120   0.074
    1UNL    H14   59  -0.083  -0.027   0.078
    1UNL    H15   60  -0.119   0.208   0.038
    1UNL    H16   61  -0.354   0.194  -0.043
    1UNL    H17   62  -0.315   0.274  -0.197
    1UNL    H18   63  -0.418   0.625   0.019
    1UNL    H19   64  -0.574   0.577   0.038
    1UNL    H20   65  -0.538   0.570   0.381
    1UNL    H21   66   0.020   0.347  -0.134
    1UNL    H22   67  -0.100   0.219  -0.346
    1UNL    H23   68   0.152   0.166  -0.234
    1UNL    H24   69  -0.037  -0.032  -0.274
    1UNL    H25   70   0.086   0.142   0.017
    1UNL    H26   71   0.098  -0.179   0.024
    1UNL    H27   72   0.337   0.014   0.292
    1UNL    H28   73   0.310   0.132   0.012
    1UNL    H29   74   0.292   0.202   0.172
    1UNL    H30   75   0.729   0.232  -0.089
    1UNL    H31   76   0.694   0.289   0.080
    1UNL    H32   77   0.928   0.032   0.143
    1UNL    H33   78   0.552  -0.046   0.175
    1UNL    H34   79   0.370  -0.247   0.274
    1UNL    H35   80   0.468  -0.067  -0.053
    1UNL    H36   81   0.647  -0.186   0.010
    1UNL    H37   82   0.316  -0.252  -0.115
    1UNL    H38   83   0.401  -0.385   0.062
   0.00000   0.00000   0.00000   0.00000   0.00000   0.00000   0.00000   0.00000   0.00000
Generated with MDTraj, t= 5.0
 83
    1UNL     C1    1  -0.099  -0.364  -0.287
    1UNL     C2    2  -0.196  -0.325  -0.182
    1UNL     C3    3  -0.316  -0.396  -0.174
    1UNL     C4    4  -0.417  -0.355  -0.087
    1UNL     C5    5  -0.403  -0.249   0.004
    1UNL     C6    6  -0.518  -0.202   0.097
    1UNL     C7    7  -0.630  -0.136   0.016
    1UNL     C8    8  -0.563  -0.318   0.196
    1UNL     C9    9  -0.283  -0.179  -0.004
    1UNL    C10   10  -0.183  -0.204  -0.102
    1UNL     O1   11  -0.056  -0.145  -0.112
    1UNL    C11   12  -0.056  -0.022  -0.042
    1UNL     O2   13  -0.171   0.057  -0.077
    1UNL    C12   14  -0.160   0.194  -0.064
    1UNL    C13   15  -0.298   0.249  -0.082
    1UNL     O3   16  -0.311   0.378  -0.030
    1UNL    C14   17  -0.439   0.421  -0.020
    1UNL     O4   18  -0.530   0.358  -0.074
    1UNL    C15   19  -0.462   0.537   0.064
    1UNL    C16   20  -0.473   0.515   0.211
    1UNL     O5   21  -0.404   0.433   0.266
    1UNL     O6   22  -0.553   0.590   0.286
    1UNL    C17   23  -0.051   0.239  -0.167
    1UNL     O7   24  -0.112   0.253  -0.292
    1UNL    C18   25   0.067   0.138  -0.189
    1UNL     O8   26   0.038   0.063  -0.303
    1UNL    C19   27   0.077   0.048  -0.057
    1UNL     O9   28   0.185  -0.039  -0.078
    1UNL    C20   29   0.209  -0.128   0.033
    1UNL    O10   30   0.221  -0.057   0.154
    1UNL    C21   31   0.344   0.009   0.178
    1UNL    C22   32   0.364   0.150   0.113
    1UNL    O11   33   0.510   0.183   0.102
    1UNL    C23   34   0.569   0.166  -0.017
    1UNL    O12   35   0.510   0.137  -0.122
    1UNL    C24   36   0.720   0.176  -0.011
    1UNL    C25   37   0.786   0.085   0.089
    1UNL    O13   38   0.765  -0.034   0.080
    1UNL    O14   39   0.865   0.135   0.179
    1UNL    C26   40   0.462  -0.090   0.152
    1UNL    O15   41   0.460  -0.198   0.240
    1UNL    C27   42   0.458  -0.147   0.004
    1UNL    O16   43   0.577  -0.224  -0.016
    1UNL    C28   44   0.328  -0.222  -0.005
    1UNL    O17   45   0.319  -0.340   0.074
    1UNL     H1   46  -0.050  -0.457  -0.241
    1UNL     H2   47  -0.145  -0.412  -0.370
    1UNL     H3   48  -0.033  -0.287  -0.316
    1UNL     H4   49  -0.338  -0.476  -0.237
    1UNL     H5   50  -0.506  -0.413  -0.080
    1UNL     H6   51  -0.479  -0.120   0.168
    1UNL     H7   52  -0.686  -0.067   0.080
    1UNL     H8   53  -0.707  -0.215  -0.000
    1UNL     H9   54  -0.612  -0.080  -0.076
    1UNL    H10   55  -0.566  -0.418   0.153
    1UNL    H11   56  -0.663  -0.300   0.241
    1UNL    H12   57  -0.503  -0.305   0.284
    1UNL    H13   58  -0.262  -0.107   0.076
    1UNL    H14   59  -0.069  -0.060   0.066
    1UNL    H15   60  -0.125   0.205   0.041
    1UNL    H16   61  -0.379   0.197  -0.032
    1UNL    H17   62  -0.326   0.249  -0.191
    1UNL    H18   63  -0.379   0.608   0.054
    1UNL    H19   64  -0.540   0.597   0.020
    1UNL    H20   65  -0.561   0.555   0.382
    1UNL    H21   66  -0.013   0.340  -0.149
    1UNL    H22   67  -0.064   0.204  -0.363
    1UNL    H23   68   0.164   0.177  -0.197
    1UNL    H24   69   0.015  -0.025  -0.278
    1UNL    H25   70   0.115   0.110   0.028
    1UNL    H26   71   0.112  -0.185   0.044
    1UNL    H27   72   0.354   0.020   0.289
    1UNL    H28   73   0.329   0.143   0.010
    1UNL    H29   74   0.300   0.223   0.164
    1UNL    H30   75   0.758   0.166  -0.109
    1UNL    H31   76   0.747   0.277   0.031
    1UNL    H32   77   0.915   0.063   0.222
    1UNL    H33   78   0.562  -0.037   0.162
    1UNL    H34   79   0.371  -0.222   0.264
    1UNL    H35   80   0.450  -0.060  -0.074
    1UNL    H36   81   0.644  -0.175   0.029
    1UNL    H37   82   0.306  -0.250  -0.109
    1UNL    H38   83   0.406  -0.356   0.119
   0.00000   0.00000   0.00000   0.00000   0.00000   0.00000   0.00000   0.00000   0.00000
Generated with MDTraj, t= 6.0
 83
    1UNL     C1    1  -0.114  -0.380  -0.288
    1UNL     C2    2  -0.210  -0.326  -0.185
    1UNL     C3    3  -0.339  -0.385  -0.190
    1UNL     C4    4  -0.435  -0.352  -0.089
    1UNL     C5    5  -0.415  -0.246   0.002
    1UNL     C6    6  -0.525  -0.205   0.092
    1UNL     C7    7  -0.631  -0.131   0.012
    1UNL     C8    8  -0.572  -0.314   0.186
    1UNL     C9    9  -0.289  -0.180  -0.003
    1UNL    C10   10  -0.191  -0.217  -0.094
    1UNL     O1   11  -0.059  -0.158  -0.087
    1UNL    C11   12  -0.061  -0.022  -0.041
    1UNL     O2   13  -0.178   0.050  -0.077
    1UNL    C12   14  -0.167   0.187  -0.059
    1UNL    C13   15  -0.300   0.259  -0.084
    1UNL     O3   16  -0.298   0.392  -0.034
    1UNL    C14   17  -0.427   0.424  -0.008
    1UNL     O4   18  -0.522   0.352  -0.039
    1UNL    C15   19  -0.451   0.550   0.074
    1UNL    C16   20  -0.482   0.516   0.209
    1UNL     O5   21  -0.416   0.433   0.267
    1UNL     O6   22  -0.576   0.585   0.285
    1UNL    C17   23  -0.066   0.231  -0.168
    1UNL     O7   24  -0.131   0.229  -0.296
    1UNL    C18   25   0.061   0.140  -0.190
    1UNL     O8   26   0.032   0.057  -0.302
    1UNL    C19   27   0.078   0.049  -0.061
    1UNL     O9   28   0.186  -0.034  -0.088
    1UNL    C20   29   0.219  -0.119   0.019
    1UNL    O10   30   0.231  -0.051   0.149
    1UNL    C21   31   0.356   0.021   0.173
    1UNL    C22   32   0.368   0.147   0.083
    1UNL    O11   33   0.505   0.194   0.079
    1UNL    C23   34   0.586   0.156  -0.026
    1UNL    O12   35   0.541   0.115  -0.135
    1UNL    C24   36   0.732   0.168  -0.006
    1UNL    C25   37   0.782   0.084   0.105
    1UNL    O13   38   0.785  -0.039   0.099
    1UNL    O14   39   0.848   0.146   0.211
    1UNL    C26   40   0.475  -0.078   0.155
    1UNL    O15   41   0.477  -0.181   0.243
    1UNL    C27   42   0.479  -0.140   0.012
    1UNL    O16   43   0.588  -0.237   0.008
    1UNL    C28   44   0.342  -0.207  -0.013
    1UNL    O17   45   0.321  -0.335   0.049
    1UNL     H1   46  -0.132  -0.493  -0.283
    1UNL     H2   47  -0.142  -0.363  -0.391
    1UNL     H3   48  -0.020  -0.335  -0.267
    1UNL     H4   49  -0.346  -0.471  -0.261
    1UNL     H5   50  -0.530  -0.406  -0.083
    1UNL     H6   51  -0.471  -0.131   0.161
    1UNL     H7   52  -0.730  -0.113   0.058
    1UNL     H8   53  -0.645  -0.181  -0.088
    1UNL     H9   54  -0.607  -0.029  -0.014
    1UNL    H10   55  -0.668  -0.351   0.153
    1UNL    H11   56  -0.578  -0.278   0.294
    1UNL    H12   57  -0.495  -0.386   0.199
    1UNL    H13   58  -0.262  -0.113   0.072
    1UNL    H14   59  -0.076  -0.037   0.071
    1UNL    H15   60  -0.144   0.202   0.053
    1UNL    H16   61  -0.383   0.209  -0.040
    1UNL    H17   62  -0.334   0.273  -0.192
    1UNL    H18   63  -0.360   0.606   0.073
    1UNL    H19   64  -0.517   0.623   0.029
    1UNL    H20   65  -0.577   0.554   0.380
    1UNL    H21   66  -0.036   0.336  -0.158
    1UNL    H22   67  -0.140   0.142  -0.330
    1UNL    H23   68   0.149   0.195  -0.218
    1UNL    H24   69   0.112  -0.005  -0.304
    1UNL    H25   70   0.102   0.126   0.019
    1UNL    H26   71   0.136  -0.197   0.039
    1UNL    H27   72   0.362   0.045   0.285
    1UNL    H28   73   0.326   0.110  -0.012
    1UNL    H29   74   0.314   0.229   0.124
    1UNL    H30   75   0.784   0.145  -0.094
    1UNL    H31   76   0.749   0.278   0.020
    1UNL    H32   77   0.891   0.076   0.263
    1UNL    H33   78   0.571  -0.018   0.167
    1UNL    H34   79   0.385  -0.214   0.266
    1UNL    H35   80   0.495  -0.061  -0.071
    1UNL    H36   81   0.671  -0.176   0.021
    1UNL    H37   82   0.335  -0.232  -0.117
    1UNL    H38   83   0.411  -0.374   0.050
   0.00000   0.00000   0.00000   0.00000   0.00000   0.00000   0.00000   0.00000   0.00000
Generated with MDTraj, t= 7.0
 83
    1UNL     C1    1  -0.095  -0.362  -0.269
    1UNL     C2    2  -0.200  -0.319  -0.176
    1UNL     C3    3  -0.330  -0.373  -0.183
    1UNL     C4    4  -0.433  -0.337  -0.109
    1UNL     C5    5  -0.406  -0.241  -0.012
    1UNL     C6    6  -0.517  -0.202   0.086
    1UNL     C7    7  -0.629  -0.105   0.020
    1UNL     C8    8  -0.577  -0.314   0.159
    1UNL     C9    9  -0.284  -0.179  -0.001
    1UNL    C10   10  -0.182  -0.214  -0.087
    1UNL     O1   11  -0.055  -0.151  -0.093
    1UNL    C11   12  -0.049  -0.021  -0.030
    1UNL     O2   13  -0.174   0.044  -0.050
    1UNL    C12   14  -0.159   0.182  -0.068
    1UNL    C13   15  -0.308   0.244  -0.076
    1UNL     O3   16  -0.303   0.367  -0.007
    1UNL    C14   17  -0.429   0.412   0.017
    1UNL     O4   18  -0.523   0.347  -0.023
    1UNL    C15   19  -0.434   0.549   0.085
    1UNL    C16   20  -0.487   0.525   0.228
    1UNL     O5   21  -0.426   0.444   0.295
    1UNL     O6   22  -0.597   0.594   0.273
    1UNL    C17   23  -0.069   0.223  -0.189
    1UNL     O7   24  -0.140   0.227  -0.309
    1UNL    C18   25   0.052   0.123  -0.206
    1UNL     O8   26   0.015   0.036  -0.311
    1UNL    C19   27   0.084   0.050  -0.075
    1UNL     O9   28   0.193  -0.040  -0.105
    1UNL    C20   29   0.226  -0.118   0.004
    1UNL    O10   30   0.235  -0.046   0.132
    1UNL    C21   31   0.355   0.028   0.150
    1UNL    C22   32   0.373   0.143   0.050
    1UNL    O11   33   0.500   0.196   0.060
    1UNL    C23   34   0.594   0.154  -0.030
    1UNL    O12   35   0.572   0.087  -0.132
    1UNL    C24   36   0.739   0.193   0.008
    1UNL    C25   37   0.780   0.086   0.107
    1UNL    O13   38   0.771  -0.031   0.080
    1UNL    O14   39   0.823   0.133   0.223
    1UNL    C26   40   0.471  -0.076   0.158
    1UNL    O15   41   0.442  -0.166   0.253
    1UNL    C27   42   0.479  -0.148   0.019
    1UNL    O16   43   0.587  -0.243   0.032
    1UNL    C28   44   0.342  -0.216  -0.018
    1UNL    O17   45   0.335  -0.335   0.062
    1UNL     H1   46  -0.128  -0.458  -0.311
    1UNL     H2   47  -0.078  -0.298  -0.357
    1UNL     H3   48  -0.004  -0.352  -0.213
    1UNL     H4   49  -0.351  -0.455  -0.248
    1UNL     H5   50  -0.525  -0.392  -0.120
    1UNL     H6   51  -0.469  -0.135   0.167
    1UNL     H7   52  -0.667  -0.041   0.103
    1UNL     H8   53  -0.705  -0.174  -0.027
    1UNL     H9   54  -0.600  -0.031  -0.054
    1UNL    H10   55  -0.642  -0.359   0.087
    1UNL    H11   56  -0.640  -0.280   0.248
    1UNL    H12   57  -0.505  -0.376   0.207
    1UNL    H13   58  -0.273  -0.099   0.078
    1UNL    H14   59  -0.051  -0.041   0.080
    1UNL    H15   60  -0.122   0.224   0.033
    1UNL    H16   61  -0.389   0.190  -0.033
    1UNL    H17   62  -0.338   0.254  -0.186
    1UNL    H18   63  -0.344   0.606   0.067
    1UNL    H19   64  -0.501   0.611   0.024
    1UNL    H20   65  -0.606   0.578   0.368
    1UNL    H21   66  -0.012   0.315  -0.159
    1UNL    H22   67  -0.089   0.178  -0.387
    1UNL    H23   68   0.143   0.165  -0.254
    1UNL    H24   69  -0.006  -0.045  -0.268
    1UNL    H25   70   0.117   0.115   0.012
    1UNL    H26   71   0.131  -0.185   0.021
    1UNL    H27   72   0.344   0.063   0.261
    1UNL    H28   73   0.363   0.114  -0.056
    1UNL    H29   74   0.294   0.210   0.080
    1UNL    H30   75   0.798   0.185  -0.079
    1UNL    H31   76   0.750   0.299   0.044
    1UNL    H32   77   0.856   0.060   0.276
    1UNL    H33   78   0.565  -0.020   0.182
    1UNL    H34   79   0.349  -0.197   0.255
    1UNL    H35   80   0.510  -0.077  -0.069
    1UNL    H36   81   0.672  -0.201   0.033
    1UNL    H37   82   0.337  -0.244  -0.122
    1UNL    H38   83   0.433  -0.350   0.083
   0.00000   0.00000   0.00000   0.00000   0.00000   0.00000   0.00000   0.00000   0.00000
Generated with MDTraj, t= 8.0
 83
    1UNL     C1    1  -0.084  -0.356  -0.275
    1UNL     C2    2  -0.187  -0.324  -0.177
    1UNL     C3    3  -0.315  -0.373  -0.190
    1UNL     C4    4  -0.421  -0.325  -0.113
    1UNL     C5    5  -0.393  -0.238  -0.005
    1UNL     C6    6  -0.504  -0.190   0.071
    1UNL     C7    7  -0.591  -0.083   0.003
    1UNL     C8    8  -0.581  -0.298   0.141
    1UNL     C9    9  -0.263  -0.194   0.011
    1UNL    C10   10  -0.164  -0.223  -0.081
    1UNL     O1   11  -0.040  -0.164  -0.085
    1UNL    C11   12  -0.034  -0.024  -0.038
    1UNL     O2   13  -0.156   0.046  -0.061
    1UNL    C12   14  -0.136   0.184  -0.068
    1UNL    C13   15  -0.278   0.243  -0.052
    1UNL     O3   16  -0.275   0.367   0.009
    1UNL    C14   17  -0.409   0.400   0.028
    1UNL     O4   18  -0.502   0.333  -0.006
    1UNL    C15   19  -0.452   0.533   0.097
    1UNL    C16   20  -0.504   0.531   0.238
    1UNL     O5   21  -0.444   0.469   0.321
    1UNL     O6   22  -0.615   0.601   0.272
    1UNL    C17   23  -0.062   0.219  -0.199
    1UNL     O7   24  -0.149   0.232  -0.306
    1UNL    C18   25   0.037   0.095  -0.240
    1UNL     O8   26  -0.046   0.004  -0.313
    1UNL    C19   27   0.089   0.043  -0.105
    1UNL     O9   28   0.201  -0.046  -0.121
    1UNL    C20   29   0.213  -0.123  -0.004
    1UNL    O10   30   0.214  -0.042   0.121
    1UNL    C21   31   0.333   0.041   0.139
    1UNL    C22   32   0.369   0.147   0.037
    1UNL    O11   33   0.498   0.200   0.064
    1UNL    C23   34   0.587   0.161  -0.032
    1UNL    O12   35   0.558   0.106  -0.136
    1UNL    C24   36   0.731   0.172   0.009
    1UNL    C25   37   0.780   0.071   0.108
    1UNL    O13   38   0.789  -0.046   0.085
    1UNL    O14   39   0.824   0.130   0.226
    1UNL    C26   40   0.454  -0.063   0.153
    1UNL    O15   41   0.429  -0.138   0.265
    1UNL    C27   42   0.459  -0.149   0.022
    1UNL    O16   43   0.566  -0.236   0.028
    1UNL    C28   44   0.330  -0.226  -0.003
    1UNL    O17   45   0.326  -0.327   0.090
    1UNL     H1   46  -0.100  -0.446  -0.324
    1UNL     H2   47  -0.070  -0.277  -0.354
    1UNL     H3   48   0.013  -0.354  -0.228
    1UNL     H4   49  -0.326  -0.452  -0.262
    1UNL     H5   50  -0.522  -0.362  -0.126
    1UNL     H6   51  -0.453  -0.132   0.156
    1UNL     H7   52  -0.678  -0.076   0.073
    1UNL     H8   53  -0.611  -0.143  -0.092
    1UNL     H9   54  -0.558   0.021  -0.014
    1UNL    H10   55  -0.610  -0.369   0.067
    1UNL    H11   56  -0.665  -0.268   0.211
    1UNL    H12   57  -0.509  -0.346   0.204
    1UNL    H13   58  -0.240  -0.120   0.080
    1UNL    H14   59  -0.021  -0.020   0.070
    1UNL    H15   60  -0.082   0.215   0.031
    1UNL    H16   61  -0.334   0.171   0.002
    1UNL    H17   62  -0.331   0.248  -0.154
    1UNL    H18   63  -0.385   0.616   0.086
    1UNL    H19   64  -0.535   0.575   0.039
    1UNL    H20   65  -0.614   0.595   0.367
    1UNL    H21   66  -0.013   0.316  -0.174
    1UNL    H22   67  -0.190   0.155  -0.338
    1UNL    H23   68   0.114   0.136  -0.311
    1UNL    H24   69  -0.066  -0.062  -0.236
    1UNL    H25   70   0.129   0.117  -0.030
    1UNL    H26   71   0.116  -0.187   0.004
    1UNL    H27   72   0.330   0.083   0.247
    1UNL    H28   73   0.369   0.102  -0.065
    1UNL    H29   74   0.307   0.240   0.034
    1UNL    H30   75   0.802   0.179  -0.075
    1UNL    H31   76   0.740   0.269   0.061
    1UNL    H32   77   0.862   0.058   0.276
    1UNL    H33   78   0.544  -0.000   0.168
    1UNL    H34   79   0.358  -0.207   0.254
    1UNL    H35   80   0.480  -0.079  -0.067
    1UNL    H36   81   0.650  -0.186   0.057
    1UNL    H37   82   0.328  -0.266  -0.106
    1UNL    H38   83   0.411  -0.367   0.091
   0.00000   0.00000   0.00000   0.00000   0.00000   0.00000   0.00000   0.00000   0.00000
Generated with MDTraj, t= 9.0
 83
    1UNL     C1    1  -0.079  -0.363  -0.274
    1UNL     C2    2  -0.192  -0.320  -0.184
    1UNL     C3    3  -0.318  -0.378  -0.196
    1UNL     C4    4  -0.425  -0.338  -0.115
    1UNL     C5    5  -0.401  -0.247  -0.016
    1UNL     C6    6  -0.505  -0.186   0.072
    1UNL     C7    7  -0.564  -0.059  -0.006
    1UNL     C8    8  -0.599  -0.275   0.135
    1UNL     C9    9  -0.278  -0.191   0.003
    1UNL    C10   10  -0.171  -0.228  -0.082
    1UNL     O1   11  -0.044  -0.166  -0.070
    1UNL    C11   12  -0.030  -0.026  -0.031
    1UNL     O2   13  -0.153   0.039  -0.050
    1UNL    C12   14  -0.142   0.179  -0.066
    1UNL    C13   15  -0.286   0.235  -0.063
    1UNL     O3   16  -0.283   0.367  -0.007
    1UNL    C14   17  -0.405   0.403   0.044
    1UNL     O4   18  -0.496   0.327   0.046
    1UNL    C15   19  -0.423   0.532   0.103
    1UNL    C16   20  -0.496   0.525   0.236
    1UNL     O5   21  -0.448   0.462   0.327
    1UNL     O6   22  -0.617   0.583   0.242
    1UNL    C17   23  -0.067   0.216  -0.201
    1UNL     O7   24  -0.164   0.226  -0.301
    1UNL    C18   25   0.028   0.095  -0.244
    1UNL     O8   26  -0.045   0.009  -0.318
    1UNL    C19   27   0.082   0.044  -0.113
    1UNL     O9   28   0.197  -0.043  -0.129
    1UNL    C20   29   0.224  -0.115  -0.010
    1UNL    O10   30   0.225  -0.033   0.108
    1UNL    C21   31   0.341   0.041   0.140
    1UNL    C22   32   0.370   0.155   0.051
    1UNL    O11   33   0.499   0.208   0.067
    1UNL    C23   34   0.582   0.158  -0.030
    1UNL    O12   35   0.541   0.099  -0.123
    1UNL    C24   36   0.725   0.173  -0.002
    1UNL    C25   37   0.779   0.066   0.098
    1UNL    O13   38   0.773  -0.053   0.086
    1UNL    O14   39   0.821   0.128   0.210
    1UNL    C26   40   0.459  -0.058   0.167
    1UNL    O15   41   0.429  -0.143   0.273
    1UNL    C27   42   0.480  -0.139   0.035
    1UNL    O16   43   0.571  -0.243   0.051
    1UNL    C28   44   0.349  -0.210  -0.008
    1UNL    O17   45   0.332  -0.314   0.079
    1UNL     H1   46  -0.058  -0.463  -0.267
    1UNL     H2   47  -0.103  -0.335  -0.378
    1UNL     H3   48   0.017  -0.312  -0.256
    1UNL     H4   49  -0.330  -0.470  -0.253
    1UNL     H5   50  -0.522  -0.385  -0.125
    1UNL     H6   51  -0.447  -0.147   0.162
    1UNL     H7   52  -0.631   0.002   0.058
    1UNL     H8   53  -0.614  -0.102  -0.095
    1UNL     H9   54  -0.489   0.014  -0.046
    1UNL    H10   55  -0.651  -0.321   0.053
    1UNL    H11   56  -0.662  -0.214   0.199
    1UNL    H12   57  -0.556  -0.360   0.192
    1UNL    H13   58  -0.267  -0.118   0.084
    1UNL    H14   59  -0.003  -0.011   0.072
    1UNL    H15   60  -0.072   0.224   0.009
    1UNL    H16   61  -0.342   0.173   0.002
    1UNL    H17   62  -0.340   0.226  -0.165
    1UNL    H18   63  -0.327   0.574   0.121
    1UNL    H19   64  -0.471   0.601   0.033
    1UNL    H20   65  -0.664   0.545   0.315
    1UNL    H21   66   0.007   0.300  -0.203
    1UNL    H22   67  -0.136   0.190  -0.391
    1UNL    H23   68   0.112   0.137  -0.309
    1UNL    H24   69  -0.047  -0.068  -0.262
    1UNL    H25   70   0.125   0.125  -0.048
    1UNL    H26   71   0.132  -0.184   0.012
    1UNL    H27   72   0.324   0.076   0.245
    1UNL    H28   73   0.365   0.130  -0.057
    1UNL    H29   74   0.298   0.242   0.071
    1UNL    H30   75   0.777   0.164  -0.102
    1UNL    H31   76   0.751   0.268   0.039
    1UNL    H32   77   0.849   0.061   0.273
    1UNL    H33   78   0.546   0.006   0.185
    1UNL    H34   79   0.364  -0.214   0.253
    1UNL    H35   80   0.539  -0.076  -0.039
    1UNL    H36   81   0.656  -0.206   0.055
    1UNL    H37   82   0.354  -0.258  -0.110
    1UNL    H38   83   0.423  -0.350   0.114
   0.00000   0.00000   0.00000   0.00000   0.00000   0.00000   0.00000   0.00000   0.00000
Generated with MDTraj, t= 10.0
 83
    1UNL     C1    1  -0.097  -0.385  -0.261
    1UNL     C2    2  -0.202  -0.328  -0.170
    1UNL     C3    3  -0.331  -0.381  -0.179
    1UNL     C4    4  -0.434  -0.329  -0.107
    1UNL     C5    5  -0.399  -0.231  -0.019
    1UNL     C6    6  -0.517  -0.169   0.062
    1UNL     C7    7  -0.571  -0.043   0.001
    1UNL     C8    8  -0.621  -0.278   0.096
    1UNL     C9    9  -0.272  -0.177   0.004
    1UNL    C10   10  -0.171  -0.223  -0.081
    1UNL     O1   11  -0.045  -0.163  -0.085
    1UNL    C11   12  -0.045  -0.034  -0.036
    1UNL     O2   13  -0.165   0.037  -0.074
    1UNL    C12   14  -0.158   0.176  -0.072
    1UNL    C13   15  -0.296   0.240  -0.080
    1UNL     O3   16  -0.291   0.368  -0.027
    1UNL    C14   17  -0.405   0.388   0.046
    1UNL     O4   18  -0.503   0.319   0.059
    1UNL    C15   19  -0.402   0.520   0.125
    1UNL    C16   20  -0.491   0.523   0.244
    1UNL     O5   21  -0.453   0.482   0.351
    1UNL     O6   22  -0.617   0.569   0.223
    1UNL    C17   23  -0.074   0.217  -0.199
    1UNL     O7   24  -0.153   0.204  -0.313
    1UNL    C18   25   0.048   0.114  -0.223
    1UNL     O8   26   0.006   0.006  -0.310
    1UNL    C19   27   0.082   0.050  -0.083
    1UNL     O9   28   0.197  -0.034  -0.097
    1UNL    C20   29   0.224  -0.111   0.014
    1UNL    O10   30   0.218  -0.038   0.133
    1UNL    C21   31   0.337   0.036   0.155
    1UNL    C22   32   0.369   0.134   0.048
    1UNL    O11   33   0.497   0.191   0.061
    1UNL    C23   34   0.585   0.152  -0.039
    1UNL    O12   35   0.560   0.096  -0.137
    1UNL    C24   36   0.732   0.181  -0.004
    1UNL    C25   37   0.783   0.086   0.095
    1UNL    O13   38   0.785  -0.034   0.076
    1UNL    O14   39   0.828   0.150   0.203
    1UNL    C26   40   0.456  -0.068   0.167
    1UNL    O15   41   0.435  -0.159   0.271
    1UNL    C27   42   0.481  -0.136   0.030
    1UNL    O16   43   0.570  -0.236   0.042
    1UNL    C28   44   0.349  -0.202  -0.011
    1UNL    O17   45   0.340  -0.321   0.054
    1UNL     H1   46  -0.052  -0.471  -0.215
    1UNL     H2   47  -0.153  -0.402  -0.350
    1UNL     H3   48  -0.016  -0.321  -0.302
    1UNL     H4   49  -0.346  -0.468  -0.238
    1UNL     H5   50  -0.528  -0.377  -0.113
    1UNL     H6   51  -0.468  -0.152   0.162
    1UNL     H7   52  -0.642   0.010   0.072
    1UNL     H8   53  -0.628  -0.067  -0.089
    1UNL     H9   54  -0.500   0.033  -0.041
    1UNL    H10   55  -0.698  -0.289   0.019
    1UNL    H11   56  -0.664  -0.271   0.190
    1UNL    H12   57  -0.576  -0.380   0.090
    1UNL    H13   58  -0.259  -0.089   0.068
    1UNL    H14   59  -0.042  -0.034   0.069
    1UNL    H15   60  -0.105   0.213   0.016
    1UNL    H16   61  -0.368   0.186  -0.023
    1UNL    H17   62  -0.348   0.255  -0.183
    1UNL    H18   63  -0.302   0.531   0.162
    1UNL    H19   64  -0.419   0.605   0.059
    1UNL    H20   65  -0.667   0.559   0.304
    1UNL    H21   66  -0.058   0.328  -0.194
    1UNL    H22   67  -0.146   0.110  -0.358
    1UNL    H23   68   0.131   0.180  -0.268
    1UNL    H24   69   0.021  -0.081  -0.259
    1UNL    H25   70   0.110   0.117   0.001
    1UNL    H26   71   0.132  -0.181   0.022
    1UNL    H27   72   0.333   0.078   0.255
    1UNL    H28   73   0.373   0.072  -0.045
    1UNL    H29   74   0.291   0.222   0.037
    1UNL    H30   75   0.801   0.168  -0.095
    1UNL    H31   76   0.746   0.280   0.030
    1UNL    H32   77   0.853   0.087   0.274
    1UNL    H33   78   0.545  -0.010   0.190
    1UNL    H34   79   0.375  -0.233   0.253
    1UNL    H35   80   0.538  -0.069  -0.041
    1UNL    H36   81   0.661  -0.191   0.072
    1UNL    H37   82   0.347  -0.231  -0.123
    1UNL    H38   83   0.412  -0.381   0.028
   0.00000   0.00000   0.00000   0.00000   0.00000   0.00000   0.00000   0.00000   0.00000
Generated with MDTraj, t= 11.0
 83
    1UNL     C1    1  -0.081  -0.390  -0.233
    1UNL     C2    2  -0.202  -0.334  -0.168
    1UNL     C3    3  -0.326  -0.386  -0.186
    1UNL     C4    4  -0.438  -0.334  -0.115
    1UNL     C5    5  -0.424  -0.244  -0.009
    1UNL     C6    6  -0.535  -0.174   0.064
    1UNL     C7    7  -0.583  -0.045  -0.004
    1UNL     C8    8  -0.651  -0.268   0.111
    1UNL     C9    9  -0.298  -0.186  -0.003
    1UNL    C10   10  -0.184  -0.227  -0.079
    1UNL     O1   11  -0.054  -0.169  -0.078
    1UNL    C11   12  -0.054  -0.035  -0.042
    1UNL     O2   13  -0.173   0.037  -0.093
    1UNL    C12   14  -0.156   0.180  -0.085
    1UNL    C13   15  -0.290   0.259  -0.081
    1UNL     O3   16  -0.286   0.382  -0.020
    1UNL    C14   17  -0.401   0.396   0.054
    1UNL     O4   18  -0.484   0.308   0.068
    1UNL    C15   19  -0.417   0.535   0.127
    1UNL    C16   20  -0.507   0.528   0.250
    1UNL     O5   21  -0.453   0.495   0.355
    1UNL     O6   22  -0.640   0.564   0.234
    1UNL    C17   23  -0.059   0.219  -0.213
    1UNL     O7   24  -0.135   0.191  -0.327
    1UNL    C18   25   0.070   0.129  -0.213
    1UNL     O8   26   0.074   0.043  -0.322
    1UNL    C19   27   0.084   0.037  -0.090
    1UNL     O9   28   0.184  -0.064  -0.103
    1UNL    C20   29   0.214  -0.128   0.019
    1UNL    O10   30   0.220  -0.045   0.132
    1UNL    C21   31   0.347   0.026   0.153
    1UNL    C22   32   0.375   0.138   0.056
    1UNL    O11   33   0.498   0.190   0.081
    1UNL    C23   34   0.582   0.160  -0.028
    1UNL    O12   35   0.543   0.117  -0.130
    1UNL    C24   36   0.729   0.181  -0.024
    1UNL    C25   37   0.789   0.102   0.087
    1UNL    O13   38   0.790  -0.022   0.087
    1UNL    O14   39   0.842   0.172   0.195
    1UNL    C26   40   0.465  -0.079   0.154
    1UNL    O15   41   0.437  -0.172   0.259
    1UNL    C27   42   0.479  -0.146   0.013
    1UNL    O16   43   0.589  -0.233  -0.000
    1UNL    C28   44   0.339  -0.226   0.003
    1UNL    O17   45   0.330  -0.337   0.093
    1UNL     H1   46  -0.040  -0.470  -0.168
    1UNL     H2   47  -0.107  -0.404  -0.334
    1UNL     H3   48  -0.005  -0.313  -0.245
    1UNL     H4   49  -0.337  -0.474  -0.253
    1UNL     H5   50  -0.540  -0.380  -0.115
    1UNL     H6   51  -0.481  -0.154   0.160
    1UNL     H7   52  -0.653   0.007   0.067
    1UNL     H8   53  -0.635  -0.059  -0.099
    1UNL     H9   54  -0.502   0.027  -0.039
    1UNL    H10   55  -0.663  -0.356   0.044
    1UNL    H11   56  -0.736  -0.212   0.129
    1UNL    H12   57  -0.627  -0.330   0.202
    1UNL    H13   58  -0.285  -0.099   0.052
    1UNL    H14   59  -0.058  -0.027   0.063
    1UNL    H15   60  -0.101   0.194   0.005
    1UNL    H16   61  -0.371   0.206  -0.036
    1UNL    H17   62  -0.329   0.284  -0.186
    1UNL    H18   63  -0.318   0.565   0.159
    1UNL    H19   64  -0.450   0.606   0.054
    1UNL    H20   65  -0.689   0.542   0.315
    1UNL    H21   66  -0.037   0.327  -0.205
    1UNL    H22   67  -0.123   0.104  -0.357
    1UNL    H23   68   0.166   0.197  -0.211
    1UNL    H24   69   0.123  -0.036  -0.302
    1UNL    H25   70   0.123   0.095  -0.006
    1UNL    H26   71   0.123  -0.193   0.036
    1UNL    H27   72   0.349   0.069   0.250
    1UNL    H28   73   0.359   0.108  -0.051
    1UNL    H29   74   0.300   0.225   0.093
    1UNL    H30   75   0.769   0.169  -0.130
    1UNL    H31   76   0.741   0.284  -0.002
    1UNL    H32   77   0.880   0.111   0.262
    1UNL    H33   78   0.555  -0.026   0.181
    1UNL    H34   79   0.363  -0.237   0.247
    1UNL    H35   80   0.482  -0.068  -0.065
    1UNL    H36   81   0.664  -0.183   0.024
    1UNL    H37   82   0.329  -0.276  -0.101
    1UNL    H38   83   0.411  -0.385   0.080
   0.00000   0.00000   0.00000   0.00000   0.00000   0.00000   0.00000   0.00000   0.00000
Generated with MDTraj, t= 12.0
 83
    1UNL     C1    1  -0.094  -0.393  -0.245
    1UNL     C2    2  -0.204  -0.341  -0.161
    1UNL     C3    3  -0.327  -0.401  -0.156
    1UNL     C4    4  -0.430  -0.346  -0.088
    1UNL     C5    5  -0.416  -0.230  -0.017
    1UNL     C6    6  -0.545  -0.163   0.061
    1UNL     C7    7  -0.615  -0.057  -0.038
    1UNL     C8    8  -0.646  -0.263   0.114
    1UNL     C9    9  -0.290  -0.171  -0.018
    1UNL    C10   10  -0.181  -0.224  -0.088
    1UNL     O1   11  -0.058  -0.163  -0.093
    1UNL    C11   12  -0.046  -0.034  -0.032
    1UNL     O2   13  -0.160   0.052  -0.064
    1UNL    C12   14  -0.137   0.193  -0.077
    1UNL    C13   15  -0.273   0.261  -0.084
    1UNL     O3   16  -0.278   0.381  -0.015
    1UNL    C14   17  -0.399   0.393   0.047
    1UNL     O4   18  -0.477   0.302   0.052
    1UNL    C15   19  -0.425   0.521   0.106
    1UNL    C16   20  -0.503   0.516   0.235
    1UNL     O5   21  -0.446   0.490   0.337
    1UNL     O6   22  -0.632   0.546   0.232
    1UNL    C17   23  -0.048   0.223  -0.198
    1UNL     O7   24  -0.123   0.209  -0.317
    1UNL    C18   25   0.079   0.133  -0.189
    1UNL     O8   26   0.088   0.055  -0.306
    1UNL    C19   27   0.089   0.036  -0.069
    1UNL     O9   28   0.198  -0.047  -0.090
    1UNL    C20   29   0.213  -0.125   0.024
    1UNL    O10   30   0.214  -0.060   0.148
    1UNL    C21   31   0.342   0.016   0.161
    1UNL    C22   32   0.355   0.141   0.072
    1UNL    O11   33   0.483   0.187   0.086
    1UNL    C23   34   0.558   0.158  -0.026
    1UNL    O12   35   0.513   0.119  -0.132
    1UNL    C24   36   0.709   0.190  -0.016
    1UNL    C25   37   0.773   0.101   0.078
    1UNL    O13   38   0.744  -0.018   0.079
    1UNL    O14   39   0.857   0.162   0.161
    1UNL    C26   40   0.471  -0.078   0.140
    1UNL    O15   41   0.484  -0.166   0.247
    1UNL    C27   42   0.474  -0.153   0.006
    1UNL    O16   43   0.586  -0.241   0.004
    1UNL    C28   44   0.332  -0.227  -0.000
    1UNL    O17   45   0.321  -0.337   0.091
    1UNL     H1   46  -0.057  -0.496  -0.220
    1UNL     H2   47  -0.128  -0.382  -0.344
    1UNL     H3   48  -0.013  -0.326  -0.242
    1UNL     H4   49  -0.339  -0.502  -0.182
    1UNL     H5   50  -0.520  -0.400  -0.082
    1UNL     H6   51  -0.502  -0.104   0.142
    1UNL     H7   52  -0.706  -0.014   0.011
    1UNL     H8   53  -0.629  -0.090  -0.141
    1UNL     H9   54  -0.537   0.024  -0.056
    1UNL    H10   55  -0.745  -0.257   0.066
    1UNL    H11   56  -0.653  -0.242   0.218
    1UNL    H12   57  -0.619  -0.368   0.089
    1UNL    H13   58  -0.279  -0.067   0.025
    1UNL    H14   59  -0.049  -0.044   0.076
    1UNL    H15   60  -0.084   0.211   0.011
    1UNL    H16   61  -0.337   0.188  -0.036
    1UNL    H17   62  -0.318   0.275  -0.188
    1UNL    H18   63  -0.324   0.551   0.134
    1UNL    H19   64  -0.469   0.591   0.039
    1UNL    H20   65  -0.660   0.518   0.324
    1UNL    H21   66  -0.009   0.326  -0.192
    1UNL    H22   67  -0.073   0.150  -0.384
    1UNL    H23   68   0.176   0.201  -0.187
    1UNL    H24   69   0.147  -0.029  -0.292
    1UNL    H25   70   0.108   0.094   0.020
    1UNL    H26   71   0.122  -0.187   0.031
    1UNL    H27   72   0.354   0.055   0.259
    1UNL    H28   73   0.343   0.093  -0.028
    1UNL    H29   74   0.263   0.216   0.092
    1UNL    H30   75   0.756   0.180  -0.116
    1UNL    H31   76   0.729   0.295   0.007
    1UNL    H32   77   0.892   0.096   0.226
    1UNL    H33   78   0.560  -0.016   0.138
    1UNL    H34   79   0.436  -0.248   0.232
    1UNL    H35   80   0.478  -0.092  -0.083
    1UNL    H36   81   0.671  -0.197   0.036
    1UNL    H37   82   0.320  -0.274  -0.103
    1UNL    H38   83   0.396  -0.401   0.058
   0.00000   0.00000   0.00000   0.00000   0.00000   0.00000   0.00000   0.00000   0.00000
Generated with MDTraj, t= 13.0
 83
    1UNL     C1    1  -0.078  -0.413  -0.233
    1UNL     C2    2  -0.192  -0.345  -0.162
    1UNL     C3    3  -0.316  -0.405  -0.161
    1UNL     C4    4  -0.420  -0.340  -0.094
    1UNL     C5    5  -0.403  -0.221  -0.023
    1UNL     C6    6  -0.512  -0.137   0.053
    1UNL     C7    7  -0.606  -0.070  -0.054
    1UNL     C8    8  -0.606  -0.240   0.134
    1UNL     C9    9  -0.279  -0.166  -0.030
    1UNL    C10   10  -0.172  -0.224  -0.099
    1UNL     O1   11  -0.052  -0.157  -0.121
    1UNL    C11   12  -0.051  -0.036  -0.036
    1UNL     O2   13  -0.158   0.058  -0.072
    1UNL    C12   14  -0.137   0.198  -0.066
    1UNL    C13   15  -0.276   0.267  -0.083
    1UNL     O3   16  -0.292   0.394  -0.033
    1UNL    C14   17  -0.416   0.411   0.020
    1UNL     O4   18  -0.507   0.329   0.019
    1UNL    C15   19  -0.439   0.537   0.101
    1UNL    C16   20  -0.502   0.515   0.239
    1UNL     O5   21  -0.432   0.470   0.326
    1UNL     O6   22  -0.637   0.530   0.246
    1UNL    C17   23  -0.035   0.235  -0.177
    1UNL     O7   24  -0.105   0.245  -0.302
    1UNL    C18   25   0.073   0.131  -0.175
    1UNL     O8   26   0.065   0.044  -0.287
    1UNL    C19   27   0.080   0.037  -0.045
    1UNL     O9   28   0.185  -0.054  -0.068
    1UNL    C20   29   0.216  -0.142   0.043
    1UNL    O10   30   0.226  -0.072   0.164
    1UNL    C21   31   0.342   0.010   0.175
    1UNL    C22   32   0.349   0.130   0.084
    1UNL    O11   33   0.472   0.190   0.092
    1UNL    C23   34   0.542   0.165  -0.017
    1UNL    O12   35   0.495   0.110  -0.117
    1UNL    C24   36   0.678   0.202  -0.020
    1UNL    C25   37   0.766   0.098   0.040
    1UNL    O13   38   0.745  -0.020   0.035
    1UNL    O14   39   0.866   0.142   0.121
    1UNL    C26   40   0.466  -0.083   0.162
    1UNL    O15   41   0.456  -0.187   0.255
    1UNL    C27   42   0.476  -0.149   0.022
    1UNL    O16   43   0.592  -0.238   0.013
    1UNL    C28   44   0.340  -0.233   0.007
    1UNL    O17   45   0.348  -0.350   0.088
    1UNL     H1   46  -0.069  -0.524  -0.235
    1UNL     H2   47  -0.082  -0.383  -0.335
    1UNL     H3   48   0.012  -0.374  -0.199
    1UNL     H4   49  -0.316  -0.510  -0.198
    1UNL     H5   50  -0.509  -0.401  -0.071
    1UNL     H6   51  -0.456  -0.058   0.102
    1UNL     H7   52  -0.665   0.005   0.005
    1UNL     H8   53  -0.671  -0.145  -0.105
    1UNL     H9   54  -0.551  -0.031  -0.144
    1UNL    H10   55  -0.672  -0.308   0.077
    1UNL    H11   56  -0.652  -0.184   0.216
    1UNL    H12   57  -0.537  -0.314   0.173
    1UNL    H13   58  -0.264  -0.067   0.007
    1UNL    H14   59  -0.064  -0.076   0.067
    1UNL    H15   60  -0.106   0.233   0.029
    1UNL    H16   61  -0.346   0.204  -0.034
    1UNL    H17   62  -0.296   0.263  -0.192
    1UNL    H18   63  -0.344   0.584   0.124
    1UNL    H19   64  -0.506   0.604   0.052
    1UNL    H20   65  -0.667   0.510   0.340
    1UNL    H21   66   0.002   0.338  -0.167
    1UNL    H22   67  -0.157   0.162  -0.328
    1UNL    H23   68   0.179   0.184  -0.181
    1UNL    H24   69   0.081  -0.045  -0.259
    1UNL    H25   70   0.090   0.093   0.046
    1UNL    H26   71   0.127  -0.201   0.055
    1UNL    H27   72   0.350   0.048   0.276
    1UNL    H28   73   0.324   0.087  -0.015
    1UNL    H29   74   0.269   0.208   0.123
    1UNL    H30   75   0.705   0.216  -0.124
    1UNL    H31   76   0.691   0.306   0.021
    1UNL    H32   77   0.904   0.057   0.159
    1UNL    H33   78   0.562  -0.033   0.177
    1UNL    H34   79   0.370  -0.235   0.234
    1UNL    H35   80   0.490  -0.073  -0.051
    1UNL    H36   81   0.669  -0.186   0.014
    1UNL    H37   82   0.327  -0.270  -0.097
    1UNL    H38   83   0.426  -0.396   0.057
   0.00000   0.00000   0.00000   0.00000   0.00000   0.00000   0.00000   0.00000   0.00000
Generated with MDTraj, t= 14.0
 83
    1UNL     C1    1  -0.065  -0.401  -0.221
    1UNL     C2    2  -0.189  -0.350  -0.161
    1UNL     C3    3  -0.315  -0.405  -0.170
    1UNL     C4    4  -0.419  -0.339  -0.100
    1UNL     C5    5  -0.405  -0.226  -0.019
    1UNL     C6    6  -0.520  -0.146   0.043
    1UNL     C7    7  -0.626  -0.107  -0.065
    1UNL     C8    8  -0.592  -0.241   0.144
    1UNL     C9    9  -0.282  -0.169  -0.021
    1UNL    C10   10  -0.168  -0.229  -0.084
    1UNL     O1   11  -0.039  -0.172  -0.078
    1UNL    C11   12  -0.046  -0.028  -0.036
    1UNL     O2   13  -0.157   0.050  -0.082
    1UNL    C12   14  -0.139   0.193  -0.064
    1UNL    C13   15  -0.273   0.263  -0.082
    1UNL     O3   16  -0.287   0.371   0.006
    1UNL    C14   17  -0.420   0.408   0.005
    1UNL     O4   18  -0.510   0.344  -0.052
    1UNL    C15   19  -0.450   0.535   0.084
    1UNL    C16   20  -0.498   0.501   0.229
    1UNL     O5   21  -0.420   0.455   0.308
    1UNL     O6   22  -0.626   0.531   0.265
    1UNL    C17   23  -0.030   0.248  -0.166
    1UNL     O7   24  -0.090   0.305  -0.283
    1UNL    C18   25   0.075   0.137  -0.189
    1UNL     O8   26   0.033   0.060  -0.300
    1UNL    C19   27   0.087   0.045  -0.058
    1UNL     O9   28   0.195  -0.045  -0.068
    1UNL    C20   29   0.208  -0.139   0.041
    1UNL    O10   30   0.207  -0.070   0.167
    1UNL    C21   31   0.329  -0.001   0.190
    1UNL    C22   32   0.352   0.119   0.107
    1UNL    O11   33   0.489   0.160   0.114
    1UNL    C23   34   0.544   0.161  -0.010
    1UNL    O12   35   0.475   0.125  -0.109
    1UNL    C24   36   0.685   0.196  -0.030
    1UNL    C25   37   0.790   0.099   0.016
    1UNL    O13   38   0.779  -0.014  -0.015
    1UNL    O14   39   0.889   0.159   0.085
    1UNL    C26   40   0.454  -0.095   0.180
    1UNL    O15   41   0.457  -0.196   0.275
    1UNL    C27   42   0.458  -0.155   0.037
    1UNL    O16   43   0.575  -0.233   0.020
    1UNL    C28   44   0.326  -0.232   0.014
    1UNL    O17   45   0.310  -0.341   0.095
    1UNL     H1   46  -0.051  -0.504  -0.228
    1UNL     H2   47  -0.074  -0.367  -0.324
    1UNL     H3   48   0.016  -0.347  -0.178
    1UNL     H4   49  -0.335  -0.498  -0.215
    1UNL     H5   50  -0.516  -0.382  -0.084
    1UNL     H6   51  -0.474  -0.057   0.081
    1UNL     H7   52  -0.701  -0.044  -0.014
    1UNL     H8   53  -0.665  -0.182  -0.141
    1UNL     H9   54  -0.563  -0.052  -0.140
    1UNL    H10   55  -0.596  -0.344   0.112
    1UNL    H11   56  -0.691  -0.189   0.170
    1UNL    H12   57  -0.539  -0.246   0.236
    1UNL    H13   58  -0.280  -0.071   0.015
    1UNL    H14   59  -0.051  -0.050   0.075
    1UNL    H15   60  -0.119   0.211   0.040
    1UNL    H16   61  -0.347   0.189  -0.060
    1UNL    H17   62  -0.288   0.297  -0.186
    1UNL    H18   63  -0.365   0.605   0.081
    1UNL    H19   64  -0.535   0.572   0.033
    1UNL    H20   65  -0.641   0.514   0.364
    1UNL    H21   66   0.035   0.325  -0.121
    1UNL    H22   67  -0.030   0.302  -0.353
    1UNL    H23   68   0.188   0.172  -0.204
    1UNL    H24   69  -0.050   0.009  -0.265
    1UNL    H25   70   0.098   0.109   0.027
    1UNL    H26   71   0.117  -0.194   0.036
    1UNL    H27   72   0.328   0.030   0.298
    1UNL    H28   73   0.340   0.086   0.004
    1UNL    H29   74   0.279   0.202   0.141
    1UNL    H30   75   0.700   0.235  -0.127
    1UNL    H31   76   0.709   0.289   0.033
    1UNL    H32   77   0.947   0.087   0.117
    1UNL    H33   78   0.548  -0.039   0.198
    1UNL    H34   79   0.409  -0.274   0.244
    1UNL    H35   80   0.463  -0.066  -0.022
    1UNL    H36   81   0.657  -0.169   0.017
    1UNL    H37   82   0.321  -0.264  -0.089
    1UNL    H38   83   0.373  -0.409   0.064
   0.00000   0.00000   0.00000   0.00000   0.00000   0.00000   0.00000   0.00000   0.00000
Generated with MDTraj, t= 15.0
 83
    1UNL     C1    1  -0.058  -0.379  -0.209
    1UNL     C2    2  -0.194  -0.333  -0.152
    1UNL     C3    3  -0.313  -0.397  -0.159
    1UNL     C4    4  -0.422  -0.347  -0.096
    1UNL     C5    5  -0.412  -0.228  -0.026
    1UNL     C6    6  -0.539  -0.159   0.036
    1UNL     C7    7  -0.650  -0.156  -0.074
    1UNL     C8    8  -0.599  -0.261   0.146
    1UNL     C9    9  -0.291  -0.157  -0.023
    1UNL    C10   10  -0.179  -0.216  -0.078
    1UNL     O1   11  -0.050  -0.164  -0.058
    1UNL    C11   12  -0.043  -0.024  -0.022
    1UNL     O2   13  -0.155   0.048  -0.078
    1UNL    C12   14  -0.147   0.195  -0.055
    1UNL    C13   15  -0.278   0.259  -0.085
    1UNL     O3   16  -0.304   0.366   0.003
    1UNL    C14   17  -0.432   0.413  -0.012
    1UNL     O4   18  -0.508   0.365  -0.094
    1UNL    C15   19  -0.466   0.533   0.074
    1UNL    C16   20  -0.488   0.484   0.210
    1UNL     O5   21  -0.402   0.422   0.272
    1UNL     O6   22  -0.606   0.530   0.271
    1UNL    C17   23  -0.028   0.258  -0.136
    1UNL     O7   24  -0.066   0.328  -0.252
    1UNL    C18   25   0.074   0.144  -0.166
    1UNL     O8   26   0.024   0.076  -0.286
    1UNL    C19   27   0.092   0.046  -0.046
    1UNL     O9   28   0.198  -0.041  -0.080
    1UNL    C20   29   0.220  -0.127   0.032
    1UNL    O10   30   0.220  -0.064   0.161
    1UNL    C21   31   0.343  -0.004   0.196
    1UNL    C22   32   0.371   0.122   0.118
    1UNL    O11   33   0.505   0.167   0.119
    1UNL    C23   34   0.550   0.173  -0.007
    1UNL    O12   35   0.477   0.142  -0.105
    1UNL    C24   36   0.693   0.210  -0.043
    1UNL    C25   37   0.780   0.092   0.001
    1UNL    O13   38   0.748  -0.025   0.003
    1UNL    O14   39   0.904   0.129   0.048
    1UNL    C26   40   0.460  -0.107   0.188
    1UNL    O15   41   0.433  -0.202   0.278
    1UNL    C27   42   0.462  -0.157   0.038
    1UNL    O16   43   0.574  -0.242   0.014
    1UNL    C28   44   0.331  -0.228   0.009
    1UNL    O17   45   0.319  -0.337   0.095
    1UNL     H1   46  -0.033  -0.477  -0.200
    1UNL     H2   47  -0.079  -0.383  -0.316
    1UNL     H3   48   0.024  -0.309  -0.190
    1UNL     H4   49  -0.310  -0.502  -0.190
    1UNL     H5   50  -0.511  -0.407  -0.093
    1UNL     H6   51  -0.509  -0.064   0.072
    1UNL     H7   52  -0.746  -0.120  -0.036
    1UNL     H8   53  -0.666  -0.241  -0.144
    1UNL     H9   54  -0.614  -0.081  -0.144
    1UNL    H10   55  -0.646  -0.350   0.108
    1UNL    H11   56  -0.661  -0.203   0.224
    1UNL    H12   57  -0.519  -0.300   0.202
    1UNL    H13   58  -0.286  -0.054   0.021
    1UNL    H14   59  -0.056  -0.036   0.091
    1UNL    H15   60  -0.135   0.196   0.054
    1UNL    H16   61  -0.365   0.195  -0.094
    1UNL    H17   62  -0.261   0.304  -0.183
    1UNL    H18   63  -0.373   0.589   0.072
    1UNL    H19   64  -0.549   0.583   0.031
    1UNL    H20   65  -0.617   0.488   0.361
    1UNL    H21   66   0.012   0.338  -0.071
    1UNL    H22   67  -0.079   0.258  -0.325
    1UNL    H23   68   0.175   0.198  -0.195
    1UNL    H24   69  -0.034   0.005  -0.260
    1UNL    H25   70   0.106   0.116   0.038
    1UNL    H26   71   0.134  -0.189   0.036
    1UNL    H27   72   0.334   0.032   0.305
    1UNL    H28   73   0.351   0.101   0.014
    1UNL    H29   74   0.308   0.206   0.152
    1UNL    H30   75   0.712   0.223  -0.147
    1UNL    H31   76   0.722   0.315  -0.007
    1UNL    H32   77   0.953   0.048   0.069
    1UNL    H33   78   0.564  -0.073   0.210
    1UNL    H34   79   0.350  -0.254   0.263
    1UNL    H35   80   0.466  -0.065  -0.021
    1UNL    H36   81   0.649  -0.179   0.008
    1UNL    H37   82   0.328  -0.264  -0.090
    1UNL    H38   83   0.407  -0.392   0.081
   0.00000   0.00000   0.00000   0.00000   0.00000   0.00000   0.00000   0.00000   0.00000
Generated with MDTraj, t= 16.0
 83
    1UNL     C1    1  -0.049  -0.392  -0.194
    1UNL     C2    2  -0.177  -0.339  -0.147
    1UNL     C3    3  -0.299  -0.410  -0.161
    1UNL     C4    4  -0.417  -0.351  -0.106
    1UNL     C5    5  -0.417  -0.238  -0.034
    1UNL     C6    6  -0.537  -0.176   0.030
    1UNL     C7    7  -0.647  -0.164  -0.070
    1UNL     C8    8  -0.584  -0.274   0.146
    1UNL     C9    9  -0.297  -0.168  -0.028
    1UNL    C10   10  -0.176  -0.217  -0.080
    1UNL     O1   11  -0.060  -0.146  -0.090
    1UNL    C11   12  -0.065  -0.026  -0.013
    1UNL     O2   13  -0.182   0.064  -0.064
    1UNL    C12   14  -0.164   0.214  -0.042
    1UNL    C13   15  -0.282   0.290  -0.096
    1UNL     O3   16  -0.305   0.413  -0.034
    1UNL    C14   17  -0.438   0.439  -0.033
    1UNL     O4   18  -0.515   0.380  -0.103
    1UNL    C15   19  -0.491   0.540   0.070
    1UNL    C16   20  -0.497   0.477   0.203
    1UNL     O5   21  -0.415   0.396   0.241
    1UNL     O6   22  -0.585   0.519   0.286
    1UNL    C17   23  -0.033   0.266  -0.117
    1UNL     O7   24  -0.067   0.318  -0.245
    1UNL    C18   25   0.069   0.159  -0.124
    1UNL     O8   26   0.045   0.086  -0.246
    1UNL    C19   27   0.072   0.050  -0.012
    1UNL     O9   28   0.178  -0.035  -0.044
    1UNL    C20   29   0.204  -0.132   0.057
    1UNL    O10   30   0.233  -0.083   0.188
    1UNL    C21   31   0.348  -0.002   0.193
    1UNL    C22   32   0.361   0.112   0.089
    1UNL    O11   33   0.489   0.169   0.095
    1UNL    C23   34   0.556   0.177  -0.022
    1UNL    O12   35   0.499   0.167  -0.132
    1UNL    C24   36   0.705   0.192  -0.023
    1UNL    C25   37   0.791   0.075   0.015
    1UNL    O13   38   0.738  -0.029   0.046
    1UNL    O14   39   0.924   0.098   0.006
    1UNL    C26   40   0.470  -0.093   0.180
    1UNL    O15   41   0.471  -0.190   0.271
    1UNL    C27   42   0.459  -0.153   0.032
    1UNL    O16   43   0.561  -0.252   0.014
    1UNL    C28   44   0.321  -0.221   0.008
    1UNL    O17   45   0.330  -0.354   0.065
    1UNL     H1   46   0.000  -0.471  -0.142
    1UNL     H2   47  -0.060  -0.428  -0.294
    1UNL     H3   48   0.015  -0.305  -0.194
    1UNL     H4   49  -0.296  -0.512  -0.199
    1UNL     H5   50  -0.509  -0.409  -0.086
    1UNL     H6   51  -0.500  -0.083   0.066
    1UNL     H7   52  -0.720  -0.088  -0.044
    1UNL     H8   53  -0.709  -0.253  -0.091
    1UNL     H9   54  -0.607  -0.134  -0.165
    1UNL    H10   55  -0.578  -0.380   0.137
    1UNL    H11   56  -0.683  -0.241   0.190
    1UNL    H12   57  -0.524  -0.245   0.231
    1UNL    H13   58  -0.303  -0.074   0.021
    1UNL    H14   59  -0.093  -0.064   0.090
    1UNL    H15   60  -0.156   0.222   0.070
    1UNL    H16   61  -0.371   0.230  -0.071
    1UNL    H17   62  -0.283   0.300  -0.205
    1UNL    H18   63  -0.420   0.620   0.076
    1UNL    H19   64  -0.591   0.565   0.039
    1UNL    H20   65  -0.576   0.470   0.370
    1UNL    H21   66   0.008   0.348  -0.055
    1UNL    H22   67  -0.000   0.278  -0.317
    1UNL    H23   68   0.182   0.180  -0.140
    1UNL    H24   69  -0.028   0.016  -0.230
    1UNL    H25   70   0.087   0.091   0.091
    1UNL    H26   71   0.119  -0.193   0.063
    1UNL    H27   72   0.355   0.055   0.294
    1UNL    H28   73   0.346   0.091  -0.015
    1UNL    H29   74   0.295   0.192   0.108
    1UNL    H30   75   0.731   0.214  -0.127
    1UNL    H31   76   0.745   0.284   0.026
    1UNL    H32   77   0.978   0.018   0.001
    1UNL    H33   78   0.570  -0.043   0.182
    1UNL    H34   79   0.423  -0.272   0.247
    1UNL    H35   80   0.473  -0.070  -0.043
    1UNL    H36   81   0.650  -0.202   0.025
    1UNL    H37   82   0.306  -0.234  -0.094
    1UNL    H38   83   0.410  -0.394   0.028
   0.00000   0.00000   0.00000   0.00000   0.00000   0.00000   0.00000   0.00000   0.00000
Generated with MDTraj, t= 17.0
 83
    1UNL     C1    1  -0.036  -0.379  -0.198
    1UNL     C2    2  -0.171  -0.340  -0.137
    1UNL     C3    3  -0.284  -0.416  -0.133
    1UNL     C4    4  -0.404  -0.370  -0.090
    1UNL     C5    5  -0.418  -0.241  -0.041
    1UNL     C6    6  -0.548  -0.192   0.022
    1UNL     C7    7  -0.669  -0.186  -0.083
    1UNL     C8    8  -0.582  -0.282   0.143
    1UNL     C9    9  -0.303  -0.162  -0.045
    1UNL    C10   10  -0.181  -0.206  -0.090
    1UNL     O1   11  -0.058  -0.135  -0.086
    1UNL    C11   12  -0.056  -0.015  -0.019
    1UNL     O2   13  -0.162   0.070  -0.078
    1UNL    C12   14  -0.161   0.211  -0.050
    1UNL    C13   15  -0.294   0.277  -0.095
    1UNL     O3   16  -0.314   0.404  -0.041
    1UNL    C14   17  -0.446   0.430  -0.027
    1UNL     O4   18  -0.529   0.383  -0.095
    1UNL    C15   19  -0.483   0.533   0.072
    1UNL    C16   20  -0.496   0.475   0.208
    1UNL     O5   21  -0.434   0.369   0.234
    1UNL     O6   22  -0.586   0.535   0.288
    1UNL    C17   23  -0.036   0.276  -0.113
    1UNL     O7   24  -0.056   0.341  -0.240
    1UNL    C18   25   0.072   0.172  -0.131
    1UNL     O8   26   0.048   0.110  -0.255
    1UNL    C19   27   0.078   0.056  -0.018
    1UNL     O9   28   0.186  -0.027  -0.046
    1UNL    C20   29   0.201  -0.124   0.061
    1UNL    O10   30   0.234  -0.064   0.184
    1UNL    C21   31   0.361   0.003   0.191
    1UNL    C22   32   0.374   0.135   0.116
    1UNL    O11   33   0.508   0.193   0.114
    1UNL    C23   34   0.564   0.164  -0.011
    1UNL    O12   35   0.508   0.114  -0.102
    1UNL    C24   36   0.709   0.191  -0.030
    1UNL    C25   37   0.788   0.072   0.006
    1UNL    O13   38   0.745  -0.023   0.072
    1UNL    O14   39   0.916   0.068  -0.037
    1UNL    C26   40   0.476  -0.101   0.162
    1UNL    O15   41   0.472  -0.206   0.256
    1UNL    C27   42   0.447  -0.158   0.013
    1UNL    O16   43   0.537  -0.258  -0.022
    1UNL    C28   44   0.311  -0.225   0.023
    1UNL    O17   45   0.308  -0.331   0.114
    1UNL     H1   46   0.049  -0.419  -0.139
    1UNL     H2   47  -0.048  -0.439  -0.281
    1UNL     H3   48   0.006  -0.292  -0.237
    1UNL     H4   49  -0.274  -0.520  -0.156
    1UNL     H5   50  -0.483  -0.437  -0.078
    1UNL     H6   51  -0.524  -0.096   0.061
    1UNL     H7   52  -0.768  -0.175  -0.041
    1UNL     H8   53  -0.674  -0.268  -0.157
    1UNL     H9   54  -0.652  -0.094  -0.136
    1UNL    H10   55  -0.633  -0.371   0.112
    1UNL    H11   56  -0.647  -0.230   0.213
    1UNL    H12   57  -0.502  -0.305   0.216
    1UNL    H13   58  -0.317  -0.058  -0.027
    1UNL    H14   59  -0.088  -0.045   0.084
    1UNL    H15   60  -0.156   0.226   0.064
    1UNL    H16   61  -0.381   0.215  -0.060
    1UNL    H17   62  -0.310   0.288  -0.204
    1UNL    H18   63  -0.399   0.598   0.081
    1UNL    H19   64  -0.578   0.579   0.044
    1UNL    H20   65  -0.575   0.491   0.371
    1UNL    H21   66  -0.013   0.369  -0.055
    1UNL    H22   67   0.006   0.314  -0.303
    1UNL    H23   68   0.173   0.225  -0.124
    1UNL    H24   69   0.012   0.027  -0.227
    1UNL    H25   70   0.095   0.111   0.080
    1UNL    H26   71   0.111  -0.177   0.071
    1UNL    H27   72   0.379   0.022   0.303
    1UNL    H28   73   0.350   0.116   0.016
    1UNL    H29   74   0.305   0.211   0.136
    1UNL    H30   75   0.733   0.227  -0.133
    1UNL    H31   76   0.741   0.271   0.034
    1UNL    H32   77   0.960  -0.004   0.010
    1UNL    H33   78   0.579  -0.058   0.162
    1UNL    H34   79   0.381  -0.242   0.275
    1UNL    H35   80   0.442  -0.074  -0.062
    1UNL    H36   81   0.619  -0.219  -0.002
    1UNL    H37   82   0.291  -0.265  -0.072
    1UNL    H38   83   0.388  -0.376   0.105
   0.00000   0.00000   0.00000   0.00000   0.00000   0.00000   0.00000   0.00000   0.00000
Generated with MDTraj, t= 18.0
 83
    1UNL     C1    1  -0.023  -0.396  -0.181
    1UNL     C2    2  -0.155  -0.340  -0.137
    1UNL     C3    3  -0.269  -0.419  -0.145
    1UNL     C4    4  -0.387  -0.379  -0.090
    1UNL     C5    5  -0.391  -0.256  -0.024
    1UNL     C6    6  -0.526  -0.199   0.013
    1UNL     C7    7  -0.626  -0.205  -0.104
    1UNL     C8    8  -0.587  -0.268   0.141
    1UNL     C9    9  -0.287  -0.167  -0.033
    1UNL    C10   10  -0.162  -0.210  -0.083
    1UNL     O1   11  -0.049  -0.131  -0.088
    1UNL    C11   12  -0.069  -0.003  -0.038
    1UNL     O2   13  -0.166   0.078  -0.113
    1UNL    C12   14  -0.162   0.214  -0.073
    1UNL    C13   15  -0.287   0.289  -0.106
    1UNL     O3   16  -0.309   0.387  -0.015
    1UNL    C14   17  -0.444   0.417  -0.013
    1UNL     O4   18  -0.528   0.361  -0.077
    1UNL    C15   19  -0.493   0.525   0.077
    1UNL    C16   20  -0.509   0.477   0.221
    1UNL     O5   21  -0.472   0.368   0.262
    1UNL     O6   22  -0.585   0.555   0.291
    1UNL    C17   23  -0.036   0.292  -0.124
    1UNL     O7   24  -0.052   0.369  -0.245
    1UNL    C18   25   0.077   0.185  -0.145
    1UNL     O8   26   0.039   0.113  -0.262
    1UNL    C19   27   0.069   0.082  -0.031
    1UNL     O9   28   0.174  -0.011  -0.044
    1UNL    C20   29   0.185  -0.101   0.068
    1UNL    O10   30   0.222  -0.041   0.192
    1UNL    C21   31   0.353   0.015   0.200
    1UNL    C22   32   0.368   0.138   0.115
    1UNL    O11   33   0.500   0.188   0.109
    1UNL    C23   34   0.570   0.141   0.001
    1UNL    O12   35   0.520   0.082  -0.083
    1UNL    C24   36   0.714   0.165   0.001
    1UNL    C25   37   0.800   0.043  -0.010
    1UNL    O13   38   0.767  -0.062   0.046
    1UNL    O14   39   0.911   0.069  -0.079
    1UNL    C26   40   0.460  -0.088   0.164
    1UNL    O15   41   0.482  -0.189   0.260
    1UNL    C27   42   0.431  -0.155   0.018
    1UNL    O16   43   0.527  -0.255   0.012
    1UNL    C28   44   0.289  -0.215   0.023
    1UNL    O17   45   0.270  -0.328   0.104
    1UNL     H1   46   0.042  -0.425  -0.095
    1UNL     H2   47  -0.036  -0.464  -0.257
    1UNL     H3   48   0.028  -0.318  -0.226
    1UNL     H4   49  -0.257  -0.521  -0.184
    1UNL     H5   50  -0.482  -0.439  -0.092
    1UNL     H6   51  -0.510  -0.096   0.035
    1UNL     H7   52  -0.705  -0.135  -0.088
    1UNL     H8   53  -0.665  -0.305  -0.106
    1UNL     H9   54  -0.571  -0.168  -0.188
    1UNL    H10   55  -0.603  -0.374   0.121
    1UNL    H11   56  -0.678  -0.231   0.180
    1UNL    H12   57  -0.520  -0.254   0.229
    1UNL    H13   58  -0.296  -0.064   0.008
    1UNL    H14   59  -0.095  -0.027   0.066
    1UNL    H15   60  -0.146   0.215   0.041
    1UNL    H16   61  -0.378   0.222  -0.111
    1UNL    H17   62  -0.276   0.335  -0.208
    1UNL    H18   63  -0.427   0.607   0.072
    1UNL    H19   64  -0.594   0.559   0.053
    1UNL    H20   65  -0.591   0.510   0.376
    1UNL    H21   66   0.012   0.365  -0.056
    1UNL    H22   67  -0.008   0.307  -0.314
    1UNL    H23   68   0.180   0.230  -0.158
    1UNL    H24   69  -0.001   0.025  -0.226
    1UNL    H25   70   0.088   0.138   0.068
    1UNL    H26   71   0.092  -0.151   0.074
    1UNL    H27   72   0.367   0.019   0.311
    1UNL    H28   73   0.329   0.124   0.017
    1UNL    H29   74   0.302   0.212   0.152
    1UNL    H30   75   0.737   0.237  -0.083
    1UNL    H31   76   0.734   0.220   0.088
    1UNL    H32   77   0.967  -0.010  -0.075
    1UNL    H33   78   0.556  -0.033   0.151
    1UNL    H34   79   0.417  -0.260   0.243
    1UNL    H35   80   0.445  -0.080  -0.062
    1UNL    H36   81   0.614  -0.201   0.027
    1UNL    H37   82   0.273  -0.250  -0.077
    1UNL    H38   83   0.347  -0.396   0.086
   0.00000   0.00000   0.00000   0.00000   0.00000   0.00000   0.00000   0.00000   0.00000
Generated with MDTraj, t= 19.0
 83
    1UNL     C1    1   0.001  -0.383  -0.174
    1UNL     C2    2  -0.125  -0.335  -0.118
    1UNL     C3    3  -0.234  -0.425  -0.109
    1UNL     C4    4  -0.361  -0.378  -0.073
    1UNL     C5    5  -0.382  -0.243  -0.053
    1UNL     C6    6  -0.516  -0.191  -0.008
    1UNL     C7    7  -0.618  -0.205  -0.112
    1UNL     C8    8  -0.560  -0.258   0.123
    1UNL     C9    9  -0.277  -0.157  -0.067
    1UNL    C10   10  -0.145  -0.199  -0.097
    1UNL     O1   11  -0.038  -0.115  -0.100
    1UNL    C11   12  -0.055   0.004  -0.032
    1UNL     O2   13  -0.156   0.085  -0.095
    1UNL    C12   14  -0.163   0.226  -0.059
    1UNL    C13   15  -0.300   0.293  -0.103
    1UNL     O3   16  -0.329   0.410  -0.027
    1UNL    C14   17  -0.463   0.423  -0.003
    1UNL     O4   18  -0.547   0.346  -0.043
    1UNL    C15   19  -0.517   0.528   0.094
    1UNL    C16   20  -0.541   0.475   0.233
    1UNL     O5   21  -0.499   0.367   0.272
    1UNL     O6   22  -0.599   0.579   0.312
    1UNL    C17   23  -0.036   0.289  -0.133
    1UNL     O7   24  -0.086   0.337  -0.260
    1UNL    C18   25   0.081   0.183  -0.151
    1UNL     O8   26   0.064   0.112  -0.272
    1UNL    C19   27   0.083   0.086  -0.038
    1UNL     O9   28   0.182  -0.020  -0.061
    1UNL    C20   29   0.197  -0.103   0.052
    1UNL    O10   30   0.213  -0.031   0.173
    1UNL    C21   31   0.340   0.023   0.194
    1UNL    C22   32   0.373   0.144   0.102
    1UNL    O11   33   0.507   0.176   0.120
    1UNL    C23   34   0.581   0.143   0.006
    1UNL    O12   35   0.537   0.120  -0.101
    1UNL    C24   36   0.733   0.138   0.035
    1UNL    C25   37   0.786   0.014  -0.027
    1UNL    O13   38   0.743  -0.100  -0.018
    1UNL    O14   39   0.896   0.035  -0.100
    1UNL    C26   40   0.443  -0.094   0.184
    1UNL    O15   41   0.410  -0.187   0.283
    1UNL    C27   42   0.438  -0.159   0.041
    1UNL    O16   43   0.532  -0.255   0.041
    1UNL    C28   44   0.301  -0.223   0.028
    1UNL    O17   45   0.288  -0.333   0.121
    1UNL     H1   46   0.061  -0.435  -0.097
    1UNL     H2   47  -0.027  -0.429  -0.265
    1UNL     H3   48   0.060  -0.302  -0.203
    1UNL     H4   49  -0.212  -0.529  -0.118
    1UNL     H5   50  -0.435  -0.449  -0.051
    1UNL     H6   51  -0.504  -0.085   0.010
    1UNL     H7   52  -0.709  -0.159  -0.081
    1UNL     H8   53  -0.635  -0.310  -0.118
    1UNL     H9   54  -0.587  -0.148  -0.199
    1UNL    H10   55  -0.560  -0.368   0.106
    1UNL    H11   56  -0.654  -0.230   0.155
    1UNL    H12   57  -0.492  -0.225   0.205
    1UNL    H13   58  -0.285  -0.055  -0.049
    1UNL    H14   59  -0.072  -0.022   0.071
    1UNL    H15   60  -0.167   0.231   0.055
    1UNL    H16   61  -0.379   0.213  -0.099
    1UNL    H17   62  -0.293   0.326  -0.210
    1UNL    H18   63  -0.466   0.621   0.102
    1UNL    H19   64  -0.614   0.552   0.048
    1UNL    H20   65  -0.611   0.552   0.404
    1UNL    H21   66  -0.010   0.383  -0.080
    1UNL    H22   67  -0.052   0.276  -0.329
    1UNL    H23   68   0.177   0.236  -0.174
    1UNL    H24   69   0.042   0.018  -0.242
    1UNL    H25   70   0.103   0.135   0.064
    1UNL    H26   71   0.100  -0.147   0.059
    1UNL    H27   72   0.350   0.045   0.298
    1UNL    H28   73   0.352   0.122  -0.003
    1UNL    H29   74   0.322   0.237   0.121
    1UNL    H30   75   0.779   0.228  -0.013
    1UNL    H31   76   0.761   0.139   0.136
    1UNL    H32   77   0.907  -0.055  -0.140
    1UNL    H33   78   0.543  -0.048   0.197
    1UNL    H34   79   0.313  -0.206   0.267
    1UNL    H35   80   0.453  -0.085  -0.039
    1UNL    H36   81   0.617  -0.215   0.026
    1UNL    H37   82   0.299  -0.262  -0.074
    1UNL    H38   83   0.379  -0.371   0.129
   0.00000   0.00000   0.00000   0.00000   0.00000   0.00000   0.00000   0.00000   0.00000
Generated with MDTraj, t= 20.0
 83
    1UNL     C1    1   0.026  -0.368  -0.140
    1UNL     C2    2  -0.119  -0.334  -0.121
    1UNL     C3    3  -0.215  -0.424  -0.097
    1UNL     C4    4  -0.347  -0.385  -0.073
    1UNL     C5    5  -0.376  -0.248  -0.055
    1UNL     C6    6  -0.517  -0.196  -0.015
    1UNL     C7    7  -0.618  -0.232  -0.130
    1UNL     C8    8  -0.568  -0.236   0.125
    1UNL     C9    9  -0.274  -0.161  -0.076
    1UNL    C10   10  -0.150  -0.198  -0.115
    1UNL     O1   11  -0.043  -0.102  -0.133
    1UNL    C11   12  -0.051   0.012  -0.051
    1UNL     O2   13  -0.168   0.092  -0.086
    1UNL    C12   14  -0.156   0.232  -0.056
    1UNL    C13   15  -0.295   0.291  -0.075
    1UNL     O3   16  -0.318   0.393   0.015
    1UNL    C14   17  -0.455   0.404   0.016
    1UNL     O4   18  -0.536   0.324  -0.035
    1UNL    C15   19  -0.508   0.519   0.092
    1UNL    C16   20  -0.546   0.476   0.231
    1UNL     O5   21  -0.521   0.372   0.286
    1UNL     O6   22  -0.602   0.576   0.299
    1UNL    C17   23  -0.051   0.290  -0.155
    1UNL     O7   24  -0.118   0.317  -0.275
    1UNL    C18   25   0.078   0.197  -0.177
    1UNL     O8   26   0.060   0.118  -0.289
    1UNL    C19   27   0.090   0.103  -0.052
    1UNL     O9   28   0.207   0.017  -0.056
    1UNL    C20   29   0.196  -0.072   0.047
    1UNL    O10   30   0.193  -0.019   0.182
    1UNL    C21   31   0.326   0.026   0.215
    1UNL    C22   32   0.394   0.133   0.115
    1UNL    O11   33   0.533   0.142   0.130
    1UNL    C23   34   0.593   0.127   0.008
    1UNL    O12   35   0.539   0.130  -0.101
    1UNL    C24   36   0.742   0.120   0.016
    1UNL    C25   37   0.797  -0.006  -0.052
    1UNL    O13   38   0.758  -0.112  -0.007
    1UNL    O14   39   0.892   0.023  -0.145
    1UNL    C26   40   0.427  -0.092   0.219
    1UNL    O15   41   0.393  -0.193   0.309
    1UNL    C27   42   0.441  -0.150   0.082
    1UNL    O16   43   0.520  -0.262   0.072
    1UNL    C28   44   0.300  -0.185   0.027
    1UNL    O17   45   0.253  -0.314   0.068
    1UNL     H1   46   0.065  -0.397  -0.046
    1UNL     H2   47   0.029  -0.443  -0.216
    1UNL     H3   48   0.090  -0.291  -0.175
    1UNL     H4   49  -0.192  -0.531  -0.102
    1UNL     H5   50  -0.416  -0.465  -0.045
    1UNL     H6   51  -0.515  -0.086  -0.016
    1UNL     H7   52  -0.722  -0.213  -0.115
    1UNL     H8   53  -0.619  -0.337  -0.138
    1UNL     H9   54  -0.603  -0.177  -0.220
    1UNL    H10   55  -0.633  -0.324   0.106
    1UNL    H11   56  -0.639  -0.162   0.144
    1UNL    H12   57  -0.506  -0.235   0.218
    1UNL    H13   58  -0.292  -0.055  -0.059
    1UNL    H14   59  -0.080  -0.022   0.048
    1UNL    H15   60  -0.127   0.239   0.052
    1UNL    H16   61  -0.376   0.214  -0.068
    1UNL    H17   62  -0.296   0.329  -0.180
    1UNL    H18   63  -0.443   0.603   0.078
    1UNL    H19   64  -0.598   0.546   0.038
    1UNL    H20   65  -0.630   0.550   0.391
    1UNL    H21   66  -0.024   0.383  -0.102
    1UNL    H22   67  -0.081   0.256  -0.340
    1UNL    H23   68   0.171   0.253  -0.177
    1UNL    H24   69   0.011   0.043  -0.247
    1UNL    H25   70   0.084   0.162   0.045
    1UNL    H26   71   0.100  -0.116   0.033
    1UNL    H27   72   0.317   0.060   0.314
    1UNL    H28   73   0.378   0.114   0.004
    1UNL    H29   74   0.355   0.234   0.135
    1UNL    H30   75   0.787   0.204  -0.038
    1UNL    H31   76   0.772   0.126   0.120
    1UNL    H32   77   0.929  -0.064  -0.175
    1UNL    H33   78   0.526  -0.051   0.243
    1UNL    H34   79   0.319  -0.246   0.276
    1UNL    H35   80   0.474  -0.082   0.006
    1UNL    H36   81   0.614  -0.230   0.043
    1UNL    H37   82   0.313  -0.196  -0.085
    1UNL    H38   83   0.340  -0.366   0.087
   0.00000   0.00000   0.00000   0.00000   0.00000   0.00000   0.00000   0.00000   0.00000
Generated with MDTraj, t= 21.0
 83
    1UNL     C1    1   0.027  -0.387  -0.126
    1UNL     C2    2  -0.102  -0.333  -0.093
    1UNL     C3    3  -0.207  -0.428  -0.091
    1UNL     C4    4  -0.343  -0.382  -0.073
    1UNL     C5    5  -0.373  -0.246  -0.063
    1UNL     C6    6  -0.514  -0.206  -0.043
    1UNL     C7    7  -0.602  -0.264  -0.146
    1UNL     C8    8  -0.546  -0.224   0.104
    1UNL     C9    9  -0.264  -0.154  -0.076
    1UNL    C10   10  -0.130  -0.192  -0.092
    1UNL     O1   11  -0.022  -0.107  -0.099
    1UNL    C11   12  -0.046   0.023  -0.047
    1UNL     O2   13  -0.158   0.092  -0.111
    1UNL    C12   14  -0.170   0.231  -0.080
    1UNL    C13   15  -0.311   0.292  -0.090
    1UNL     O3   16  -0.341   0.402   0.006
    1UNL    C14   17  -0.474   0.416   0.030
    1UNL     O4   18  -0.561   0.351  -0.029
    1UNL    C15   19  -0.516   0.526   0.122
    1UNL    C16   20  -0.552   0.486   0.253
    1UNL     O5   21  -0.530   0.377   0.297
    1UNL     O6   22  -0.629   0.583   0.315
    1UNL    C17   23  -0.057   0.298  -0.166
    1UNL     O7   24  -0.112   0.328  -0.298
    1UNL    C18   25   0.065   0.196  -0.178
    1UNL     O8   26   0.038   0.105  -0.287
    1UNL    C19   27   0.085   0.112  -0.055
    1UNL     O9   28   0.203   0.030  -0.073
    1UNL    C20   29   0.211  -0.063   0.031
    1UNL    O10   30   0.211  -0.010   0.165
    1UNL    C21   31   0.342   0.024   0.216
    1UNL    C22   32   0.406   0.145   0.145
    1UNL    O11   33   0.554   0.147   0.149
    1UNL    C23   34   0.602   0.127   0.024
    1UNL    O12   35   0.525   0.111  -0.074
    1UNL    C24   36   0.747   0.121  -0.007
    1UNL    C25   37   0.798  -0.016  -0.045
    1UNL    O13   38   0.776  -0.115   0.018
    1UNL    O14   39   0.858  -0.030  -0.167
    1UNL    C26   40   0.427  -0.103   0.215
    1UNL    O15   41   0.353  -0.202   0.291
    1UNL    C27   42   0.449  -0.154   0.077
    1UNL    O16   43   0.536  -0.262   0.063
    1UNL    C28   44   0.310  -0.183   0.011
    1UNL    O17   45   0.269  -0.308   0.070
    1UNL     H1   46   0.092  -0.344  -0.062
    1UNL     H2   47   0.022  -0.494  -0.117
    1UNL     H3   48   0.053  -0.373  -0.229
    1UNL     H4   49  -0.190  -0.532  -0.107
    1UNL     H5   50  -0.417  -0.463  -0.071
    1UNL     H6   51  -0.524  -0.098  -0.070
    1UNL     H7   52  -0.701  -0.225  -0.147
    1UNL     H8   53  -0.616  -0.364  -0.114
    1UNL     H9   54  -0.578  -0.252  -0.249
    1UNL    H10   55  -0.508  -0.320   0.140
    1UNL    H11   56  -0.652  -0.232   0.128
    1UNL    H12   57  -0.509  -0.141   0.164
    1UNL    H13   58  -0.285  -0.048  -0.062
    1UNL    H14   59  -0.076   0.018   0.059
    1UNL    H15   60  -0.140   0.232   0.025
    1UNL    H16   61  -0.383   0.212  -0.077
    1UNL    H17   62  -0.331   0.330  -0.190
    1UNL    H18   63  -0.433   0.593   0.134
    1UNL    H19   64  -0.592   0.591   0.080
    1UNL    H20   65  -0.658   0.549   0.407
    1UNL    H21   66  -0.021   0.393  -0.125
    1UNL    H22   67  -0.086   0.253  -0.366
    1UNL    H23   68   0.148   0.245  -0.223
    1UNL    H24   69   0.011   0.019  -0.241
    1UNL    H25   70   0.084   0.182   0.031
    1UNL    H26   71   0.117  -0.113   0.032
    1UNL    H27   72   0.314   0.056   0.312
    1UNL    H28   73   0.370   0.146   0.035
    1UNL    H29   74   0.379   0.240   0.199
    1UNL    H30   75   0.766   0.186  -0.088
    1UNL    H31   76   0.805   0.151   0.083
    1UNL    H32   77   0.871  -0.127  -0.181
    1UNL    H33   78   0.523  -0.073   0.255
    1UNL    H34   79   0.256  -0.210   0.273
    1UNL    H35   80   0.493  -0.074   0.018
    1UNL    H36   81   0.621  -0.224   0.049
    1UNL    H37   82   0.322  -0.213  -0.099
    1UNL    H38   83   0.349  -0.341   0.108
   0.00000   0.00000   0.00000   0.00000   0.00000   0.00000   0.00000   0.00000   0.00000
Generated with MDTraj, t= 22.0
 83
    1UNL     C1    1   0.040  -0.369  -0.110
    1UNL     C2    2  -0.102  -0.332  -0.085
    1UNL     C3    3  -0.199  -0.428  -0.088
    1UNL     C4    4  -0.332  -0.395  -0.073
    1UNL     C5    5  -0.372  -0.261  -0.068
    1UNL     C6    6  -0.515  -0.209  -0.055
    1UNL     C7    7  -0.611  -0.287  -0.150
    1UNL     C8    8  -0.556  -0.197   0.090
    1UNL     C9    9  -0.274  -0.159  -0.077
    1UNL    C10   10  -0.138  -0.196  -0.089
    1UNL     O1   11  -0.032  -0.099  -0.102
    1UNL    C11   12  -0.060   0.026  -0.038
    1UNL     O2   13  -0.178   0.088  -0.085
    1UNL    C12   14  -0.171   0.225  -0.060
    1UNL    C13   15  -0.305   0.294  -0.081
    1UNL     O3   16  -0.325   0.414  -0.013
    1UNL    C14   17  -0.455   0.423   0.023
    1UNL     O4   18  -0.542   0.353  -0.030
    1UNL    C15   19  -0.480   0.524   0.114
    1UNL    C16   20  -0.547   0.470   0.240
    1UNL     O5   21  -0.519   0.368   0.298
    1UNL     O6   22  -0.633   0.553   0.292
    1UNL    C17   23  -0.069   0.292  -0.153
    1UNL     O7   24  -0.127   0.335  -0.282
    1UNL    C18   25   0.049   0.200  -0.176
    1UNL     O8   26   0.028   0.109  -0.284
    1UNL    C19   27   0.064   0.118  -0.043
    1UNL     O9   28   0.187   0.043  -0.051
    1UNL    C20   29   0.201  -0.057   0.050
    1UNL    O10   30   0.221  -0.003   0.181
    1UNL    C21   31   0.354   0.032   0.215
    1UNL    C22   32   0.398   0.145   0.117
    1UNL    O11   33   0.541   0.161   0.129
    1UNL    C23   34   0.605   0.130   0.017
    1UNL    O12   35   0.549   0.114  -0.097
    1UNL    C24   36   0.747   0.099   0.022
    1UNL    C25   37   0.784  -0.038  -0.018
    1UNL    O13   38   0.780  -0.123   0.064
    1UNL    O14   39   0.810  -0.056  -0.150
    1UNL    C26   40   0.453  -0.092   0.197
    1UNL    O15   41   0.413  -0.202   0.288
    1UNL    C27   42   0.446  -0.140   0.048
    1UNL    O16   43   0.522  -0.252   0.028
    1UNL    C28   44   0.302  -0.166   0.001
    1UNL    O17   45   0.271  -0.297   0.042
    1UNL     H1   46   0.102  -0.280  -0.084
    1UNL     H2   47   0.064  -0.450  -0.048
    1UNL     H3   48   0.060  -0.418  -0.205
    1UNL     H4   49  -0.167  -0.530  -0.102
    1UNL     H5   50  -0.403  -0.473  -0.073
    1UNL     H6   51  -0.532  -0.107  -0.099
    1UNL     H7   52  -0.695  -0.228  -0.174
    1UNL     H8   53  -0.643  -0.373  -0.096
    1UNL     H9   54  -0.572  -0.307  -0.246
    1UNL    H10   55  -0.603  -0.291   0.119
    1UNL    H11   56  -0.638  -0.125   0.119
    1UNL    H12   57  -0.475  -0.170   0.154
    1UNL    H13   58  -0.294  -0.057  -0.065
    1UNL    H14   59  -0.082  -0.010   0.067
    1UNL    H15   60  -0.132   0.244   0.038
    1UNL    H16   61  -0.381   0.229  -0.044
    1UNL    H17   62  -0.328   0.311  -0.185
    1UNL    H18   63  -0.392   0.580   0.142
    1UNL    H19   64  -0.541   0.599   0.067
    1UNL    H20   65  -0.663   0.515   0.381
    1UNL    H21   66  -0.032   0.382  -0.101
    1UNL    H22   67  -0.103   0.277  -0.349
    1UNL    H23   68   0.140   0.247  -0.200
    1UNL    H24   69  -0.002   0.029  -0.240
    1UNL    H25   70   0.086   0.181   0.041
    1UNL    H26   71   0.104  -0.098   0.065
    1UNL    H27   72   0.360   0.061   0.317
    1UNL    H28   73   0.369   0.111   0.010
    1UNL    H29   74   0.340   0.237   0.145
    1UNL    H30   75   0.795   0.163  -0.044
    1UNL    H31   76   0.780   0.113   0.128
    1UNL    H32   77   0.814  -0.150  -0.169
    1UNL    H33   78   0.556  -0.065   0.217
    1UNL    H34   79   0.345  -0.262   0.255
    1UNL    H35   80   0.495  -0.065  -0.012
    1UNL    H36   81   0.622  -0.227   0.048
    1UNL    H37   82   0.293  -0.165  -0.113
    1UNL    H38   83   0.352  -0.359   0.015
   0.00000   0.00000   0.00000   0.00000   0.00000   0.00000   0.00000   0.00000   0.00000
Generated with MDTraj, t= 23.0
 83
    1UNL     C1    1   0.027  -0.385  -0.116
    1UNL     C2    2  -0.111  -0.340  -0.100
    1UNL     C3    3  -0.215  -0.429  -0.084
    1UNL     C4    4  -0.347  -0.387  -0.070
    1UNL     C5    5  -0.383  -0.247  -0.078
    1UNL     C6    6  -0.526  -0.206  -0.062
    1UNL     C7    7  -0.620  -0.311  -0.139
    1UNL     C8    8  -0.575  -0.189   0.082
    1UNL     C9    9  -0.279  -0.156  -0.084
    1UNL    C10   10  -0.145  -0.199  -0.098
    1UNL     O1   11  -0.039  -0.113  -0.093
    1UNL    C11   12  -0.061   0.022  -0.032
    1UNL     O2   13  -0.178   0.092  -0.081
    1UNL    C12   14  -0.177   0.228  -0.054
    1UNL    C13   15  -0.318   0.291  -0.072
    1UNL     O3   16  -0.336   0.408  -0.006
    1UNL    C14   17  -0.465   0.439   0.020
    1UNL     O4   18  -0.558   0.380  -0.034
    1UNL    C15   19  -0.498   0.546   0.125
    1UNL    C16   20  -0.549   0.476   0.241
    1UNL     O5   21  -0.482   0.384   0.288
    1UNL     O6   22  -0.668   0.522   0.287
    1UNL    C17   23  -0.059   0.294  -0.140
    1UNL     O7   24  -0.111   0.327  -0.271
    1UNL    C18   25   0.066   0.196  -0.157
    1UNL     O8   26   0.060   0.117  -0.273
    1UNL    C19   27   0.076   0.103  -0.033
    1UNL     O9   28   0.192   0.030  -0.059
    1UNL    C20   29   0.203  -0.072   0.042
    1UNL    O10   30   0.236  -0.007   0.168
    1UNL    C21   31   0.368   0.035   0.188
    1UNL    C22   32   0.408   0.162   0.108
    1UNL    O11   33   0.545   0.186   0.125
    1UNL    C23   34   0.606   0.145   0.013
    1UNL    O12   35   0.544   0.131  -0.097
    1UNL    C24   36   0.751   0.112   0.029
    1UNL    C25   37   0.774  -0.038   0.008
    1UNL    O13   38   0.761  -0.117   0.098
    1UNL    O14   39   0.807  -0.085  -0.117
    1UNL    C26   40   0.471  -0.082   0.153
    1UNL    O15   41   0.460  -0.185   0.253
    1UNL    C27   42   0.450  -0.149   0.010
    1UNL    O16   43   0.524  -0.268   0.006
    1UNL    C28   44   0.302  -0.188  -0.001
    1UNL    O17   45   0.281  -0.304   0.081
    1UNL     H1   46   0.080  -0.330  -0.205
    1UNL     H2   47   0.082  -0.345  -0.037
    1UNL     H3   48   0.049  -0.488  -0.104
    1UNL     H4   49  -0.197  -0.535  -0.086
    1UNL     H5   50  -0.431  -0.454  -0.052
    1UNL     H6   51  -0.544  -0.109  -0.114
    1UNL     H7   52  -0.721  -0.283  -0.139
    1UNL     H8   53  -0.613  -0.409  -0.096
    1UNL     H9   54  -0.604  -0.314  -0.243
    1UNL    H10   55  -0.544  -0.277   0.133
    1UNL    H11   56  -0.689  -0.205   0.094
    1UNL    H12   57  -0.547  -0.097   0.127
    1UNL    H13   58  -0.295  -0.049  -0.071
    1UNL    H14   59  -0.094  -0.009   0.071
    1UNL    H15   60  -0.153   0.235   0.049
    1UNL    H16   61  -0.395   0.225  -0.037
    1UNL    H17   62  -0.340   0.315  -0.173
    1UNL    H18   63  -0.422   0.619   0.154
    1UNL    H19   64  -0.579   0.615   0.108
    1UNL    H20   65  -0.681   0.471   0.368
    1UNL    H21   66  -0.038   0.388  -0.086
    1UNL    H22   67  -0.053   0.276  -0.341
    1UNL    H23   68   0.145   0.263  -0.161
    1UNL    H24   69   0.033   0.022  -0.249
    1UNL    H25   70   0.096   0.157   0.056
    1UNL    H26   71   0.104  -0.104   0.062
    1UNL    H27   72   0.396   0.048   0.294
    1UNL    H28   73   0.380   0.152  -0.003
    1UNL    H29   74   0.348   0.244   0.150
    1UNL    H30   75   0.808   0.170  -0.038
    1UNL    H31   76   0.774   0.142   0.133
    1UNL    H32   77   0.818  -0.181  -0.115
    1UNL    H33   78   0.573  -0.047   0.153
    1UNL    H34   79   0.378  -0.230   0.227
    1UNL    H35   80   0.506  -0.087  -0.063
    1UNL    H36   81   0.609  -0.243   0.036
    1UNL    H37   82   0.272  -0.210  -0.106
    1UNL    H38   83   0.350  -0.364   0.071
   0.00000   0.00000   0.00000   0.00000   0.00000   0.00000   0.00000   0.00000   0.00000
Generated with MDTraj, t= 24.0
 83
    1UNL     C1    1   0.021  -0.383  -0.106
    1UNL     C2    2  -0.121  -0.338  -0.095
    1UNL     C3    3  -0.229  -0.431  -0.083
    1UNL     C4    4  -0.359  -0.387  -0.078
    1UNL     C5    5  -0.392  -0.250  -0.080
    1UNL     C6    6  -0.532  -0.201  -0.067
    1UNL     C7    7  -0.633  -0.289  -0.130
    1UNL     C8    8  -0.572  -0.180   0.078
    1UNL     C9    9  -0.285  -0.168  -0.085
    1UNL    C10   10  -0.151  -0.204  -0.100
    1UNL     O1   11  -0.048  -0.109  -0.113
    1UNL    C11   12  -0.074   0.018  -0.042
    1UNL     O2   13  -0.179   0.095  -0.098
    1UNL    C12   14  -0.169   0.229  -0.049
    1UNL    C13   15  -0.295   0.308  -0.075
    1UNL     O3   16  -0.329   0.388   0.030
    1UNL    C14   17  -0.462   0.428   0.013
    1UNL     O4   18  -0.531   0.380  -0.074
    1UNL    C15   19  -0.522   0.526   0.104
    1UNL    C16   20  -0.551   0.474   0.247
    1UNL     O5   21  -0.465   0.430   0.323
    1UNL     O6   22  -0.679   0.489   0.285
    1UNL    C17   23  -0.052   0.298  -0.126
    1UNL     O7   24  -0.103   0.341  -0.251
    1UNL    C18   25   0.062   0.195  -0.151
    1UNL     O8   26   0.038   0.125  -0.274
    1UNL    C19   27   0.068   0.098  -0.037
    1UNL     O9   28   0.184   0.021  -0.049
    1UNL    C20   29   0.198  -0.079   0.053
    1UNL    O10   30   0.232  -0.022   0.179
    1UNL    C21   31   0.365   0.027   0.187
    1UNL    C22   32   0.398   0.152   0.096
    1UNL    O11   33   0.536   0.172   0.112
    1UNL    C23   34   0.604   0.128  -0.002
    1UNL    O12   35   0.542   0.100  -0.109
    1UNL    C24   36   0.759   0.125   0.001
    1UNL    C25   37   0.793  -0.019   0.004
    1UNL    O13   38   0.765  -0.081   0.105
    1UNL    O14   39   0.863  -0.076  -0.101
    1UNL    C26   40   0.468  -0.087   0.165
    1UNL    O15   41   0.450  -0.186   0.265
    1UNL    C27   42   0.444  -0.146   0.021
    1UNL    O16   43   0.541  -0.244  -0.010
    1UNL    C28   44   0.299  -0.191   0.016
    1UNL    O17   45   0.297  -0.318   0.083
    1UNL     H1   46   0.066  -0.395  -0.210
    1UNL     H2   47   0.081  -0.297  -0.073
    1UNL     H3   48   0.052  -0.459  -0.040
    1UNL     H4   49  -0.206  -0.536  -0.083
    1UNL     H5   50  -0.434  -0.464  -0.076
    1UNL     H6   51  -0.530  -0.098  -0.113
    1UNL     H7   52  -0.729  -0.250  -0.119
    1UNL     H8   53  -0.636  -0.385  -0.085
    1UNL     H9   54  -0.631  -0.301  -0.234
    1UNL    H10   55  -0.608  -0.269   0.126
    1UNL    H11   56  -0.658  -0.105   0.088
    1UNL    H12   57  -0.486  -0.127   0.115
    1UNL    H13   58  -0.301  -0.063  -0.066
    1UNL    H14   59  -0.114  -0.006   0.061
    1UNL    H15   60  -0.152   0.217   0.054
    1UNL    H16   61  -0.381   0.243  -0.087
    1UNL    H17   62  -0.291   0.375  -0.160
    1UNL    H18   63  -0.457   0.614   0.103
    1UNL    H19   64  -0.605   0.564   0.048
    1UNL    H20   65  -0.679   0.458   0.375
    1UNL    H21   66  -0.003   0.380  -0.070
    1UNL    H22   67  -0.097   0.264  -0.307
    1UNL    H23   68   0.156   0.232  -0.170
    1UNL    H24   69   0.002   0.038  -0.264
    1UNL    H25   70   0.073   0.138   0.059
    1UNL    H26   71   0.103  -0.128   0.065
    1UNL    H27   72   0.377   0.051   0.299
    1UNL    H28   73   0.365   0.125  -0.008
    1UNL    H29   74   0.348   0.240   0.126
    1UNL    H30   75   0.800   0.181  -0.085
    1UNL    H31   76   0.793   0.171   0.090
    1UNL    H32   77   0.889  -0.167  -0.082
    1UNL    H33   78   0.572  -0.055   0.171
    1UNL    H34   79   0.358  -0.226   0.259
    1UNL    H35   80   0.469  -0.068  -0.059
    1UNL    H36   81   0.632  -0.198   0.012
    1UNL    H37   82   0.269  -0.208  -0.088
    1UNL    H38   83   0.387  -0.360   0.066
   0.00000   0.00000   0.00000   0.00000   0.00000   0.00000   0.00000   0.00000   0.00000
Generated with MDTraj, t= 25.0
 83
    1UNL     C1    1   0.000  -0.397  -0.108
    1UNL     C2    2  -0.138  -0.337  -0.089
    1UNL     C3    3  -0.247  -0.424  -0.088
    1UNL     C4    4  -0.374  -0.376  -0.078
    1UNL     C5    5  -0.387  -0.241  -0.088
    1UNL     C6    6  -0.526  -0.178  -0.067
    1UNL     C7    7  -0.646  -0.264  -0.132
    1UNL     C8    8  -0.560  -0.168   0.082
    1UNL     C9    9  -0.282  -0.153  -0.093
    1UNL    C10   10  -0.156  -0.200  -0.096
    1UNL     O1   11  -0.041  -0.121  -0.106
    1UNL    C11   12  -0.055   0.003  -0.030
    1UNL     O2   13  -0.165   0.083  -0.068
    1UNL    C12   14  -0.161   0.227  -0.039
    1UNL    C13   15  -0.300   0.288  -0.065
    1UNL     O3   16  -0.343   0.394   0.015
    1UNL    C14   17  -0.470   0.423  -0.003
    1UNL     O4   18  -0.550   0.374  -0.078
    1UNL    C15   19  -0.514   0.525   0.107
    1UNL    C16   20  -0.542   0.474   0.244
    1UNL     O5   21  -0.456   0.464   0.329
    1UNL     O6   22  -0.673   0.441   0.267
    1UNL    C17   23  -0.045   0.293  -0.110
    1UNL     O7   24  -0.085   0.357  -0.227
    1UNL    C18   25   0.066   0.193  -0.154
    1UNL     O8   26   0.027   0.128  -0.273
    1UNL    C19   27   0.082   0.085  -0.035
    1UNL     O9   28   0.194   0.008  -0.067
    1UNL    C20   29   0.207  -0.086   0.036
    1UNL    O10   30   0.223  -0.020   0.164
    1UNL    C21   31   0.355   0.025   0.194
    1UNL    C22   32   0.393   0.135   0.089
    1UNL    O11   33   0.532   0.162   0.094
    1UNL    C23   34   0.590   0.130  -0.024
    1UNL    O12   35   0.528   0.090  -0.120
    1UNL    C24   36   0.741   0.138  -0.030
    1UNL    C25   37   0.811   0.003  -0.019
    1UNL    O13   38   0.770  -0.085   0.052
    1UNL    O14   39   0.933  -0.004  -0.071
    1UNL    C26   40   0.447  -0.093   0.189
    1UNL    O15   41   0.411  -0.181   0.290
    1UNL    C27   42   0.457  -0.165   0.051
    1UNL    O16   43   0.550  -0.272   0.048
    1UNL    C28   44   0.313  -0.197   0.007
    1UNL    O17   45   0.279  -0.323   0.064
    1UNL     H1   46   0.015  -0.440  -0.206
    1UNL     H2   47   0.079  -0.316  -0.094
    1UNL     H3   48   0.006  -0.477  -0.036
    1UNL     H4   49  -0.223  -0.530  -0.101
    1UNL     H5   50  -0.459  -0.443  -0.074
    1UNL     H6   51  -0.536  -0.072  -0.101
    1UNL     H7   52  -0.730  -0.201  -0.148
    1UNL     H8   53  -0.675  -0.347  -0.072
    1UNL     H9   54  -0.628  -0.300  -0.230
    1UNL    H10   55  -0.559  -0.262   0.137
    1UNL    H11   56  -0.661  -0.130   0.096
    1UNL    H12   57  -0.497  -0.087   0.122
    1UNL    H13   58  -0.309  -0.052  -0.083
    1UNL    H14   59  -0.072  -0.009   0.078
    1UNL    H15   60  -0.152   0.233   0.068
    1UNL    H16   61  -0.382   0.215  -0.055
    1UNL    H17   62  -0.298   0.321  -0.170
    1UNL    H18   63  -0.435   0.600   0.115
    1UNL    H19   64  -0.594   0.584   0.069
    1UNL    H20   65  -0.685   0.405   0.354
    1UNL    H21   66  -0.012   0.376  -0.047
    1UNL    H22   67  -0.089   0.292  -0.303
    1UNL    H23   68   0.159   0.236  -0.171
    1UNL    H24   69  -0.006   0.035  -0.251
    1UNL    H25   70   0.101   0.138   0.055
    1UNL    H26   71   0.117  -0.149   0.047
    1UNL    H27   72   0.339   0.079   0.296
    1UNL    H28   73   0.361   0.109  -0.013
    1UNL    H29   74   0.335   0.218   0.111
    1UNL    H30   75   0.771   0.183  -0.130
    1UNL    H31   76   0.778   0.201   0.045
    1UNL    H32   77   0.972  -0.091  -0.051
    1UNL    H33   78   0.547  -0.050   0.211
    1UNL    H34   79   0.327  -0.230   0.285
    1UNL    H35   80   0.490  -0.090  -0.028
    1UNL    H36   81   0.632  -0.230   0.058
    1UNL    H37   82   0.311  -0.199  -0.100
    1UNL    H38   83   0.362  -0.373   0.077
   0.00000   0.00000   0.00000   0.00000   0.00000   0.00000   0.00000   0.00000   0.00000
Generated with MDTraj, t= 26.0
 83
    1UNL     C1    1   0.001  -0.399  -0.115
    1UNL     C2    2  -0.141  -0.348  -0.102
    1UNL     C3    3  -0.255  -0.424  -0.104
    1UNL     C4    4  -0.382  -0.361  -0.079
    1UNL     C5    5  -0.404  -0.225  -0.069
    1UNL     C6    6  -0.527  -0.157  -0.055
    1UNL     C7    7  -0.641  -0.229  -0.144
    1UNL     C8    8  -0.572  -0.137   0.088
    1UNL     C9    9  -0.284  -0.150  -0.068
    1UNL    C10   10  -0.158  -0.202  -0.086
    1UNL     O1   11  -0.039  -0.133  -0.083
    1UNL    C11   12  -0.058   0.002  -0.034
    1UNL     O2   13  -0.163   0.077  -0.093
    1UNL    C12   14  -0.165   0.218  -0.039
    1UNL    C13   15  -0.300   0.278  -0.054
    1UNL     O3   16  -0.320   0.400   0.007
    1UNL    C14   17  -0.461   0.414   0.007
    1UNL     O4   18  -0.538   0.334  -0.042
    1UNL    C15   19  -0.500   0.528   0.096
    1UNL    C16   20  -0.533   0.470   0.226
    1UNL     O5   21  -0.458   0.481   0.319
    1UNL     O6   22  -0.648   0.397   0.236
    1UNL    C17   23  -0.047   0.295  -0.101
    1UNL     O7   24  -0.080   0.367  -0.222
    1UNL    C18   25   0.065   0.193  -0.151
    1UNL     O8   26   0.023   0.137  -0.269
    1UNL    C19   27   0.078   0.079  -0.038
    1UNL     O9   28   0.188  -0.006  -0.062
    1UNL    C20   29   0.203  -0.099   0.039
    1UNL    O10   30   0.211  -0.027   0.165
    1UNL    C21   31   0.339   0.019   0.187
    1UNL    C22   32   0.374   0.123   0.079
    1UNL    O11   33   0.518   0.158   0.087
    1UNL    C23   34   0.583   0.127  -0.035
    1UNL    O12   35   0.530   0.078  -0.125
    1UNL    C24   36   0.727   0.150  -0.035
    1UNL    C25   37   0.816   0.029  -0.025
    1UNL    O13   38   0.765  -0.083  -0.030
    1UNL    O14   39   0.953   0.050  -0.017
    1UNL    C26   40   0.447  -0.095   0.199
    1UNL    O15   41   0.416  -0.195   0.293
    1UNL    C27   42   0.462  -0.168   0.061
    1UNL    O16   43   0.550  -0.278   0.069
    1UNL    C28   44   0.318  -0.205   0.010
    1UNL    O17   45   0.279  -0.324   0.078
    1UNL     H1   46   0.008  -0.477  -0.182
    1UNL     H2   47   0.067  -0.313  -0.149
    1UNL     H3   48   0.022  -0.443  -0.013
    1UNL     H4   49  -0.249  -0.526  -0.135
    1UNL     H5   50  -0.470  -0.423  -0.078
    1UNL     H6   51  -0.510  -0.055  -0.098
    1UNL     H7   52  -0.722  -0.160  -0.152
    1UNL     H8   53  -0.668  -0.325  -0.111
    1UNL     H9   54  -0.605  -0.234  -0.243
    1UNL    H10   55  -0.583  -0.228   0.149
    1UNL    H11   56  -0.661  -0.086   0.103
    1UNL    H12   57  -0.494  -0.066   0.126
    1UNL    H13   58  -0.293  -0.044  -0.050
    1UNL    H14   59  -0.080   0.004   0.072
    1UNL    H15   60  -0.150   0.216   0.070
    1UNL    H16   61  -0.371   0.204  -0.008
    1UNL    H17   62  -0.322   0.298  -0.162
    1UNL    H18   63  -0.423   0.605   0.098
    1UNL    H19   64  -0.587   0.574   0.052
    1UNL    H20   65  -0.660   0.351   0.321
    1UNL    H21   66  -0.000   0.375  -0.042
    1UNL    H22   67  -0.092   0.301  -0.298
    1UNL    H23   68   0.161   0.232  -0.167
    1UNL    H24   69  -0.038   0.065  -0.252
    1UNL    H25   70   0.090   0.132   0.055
    1UNL    H26   71   0.116  -0.166   0.060
    1UNL    H27   72   0.340   0.075   0.289
    1UNL    H28   73   0.361   0.082  -0.020
    1UNL    H29   74   0.321   0.212   0.079
    1UNL    H30   75   0.756   0.205  -0.129
    1UNL    H31   76   0.753   0.205   0.050
    1UNL    H32   77   0.995  -0.040  -0.023
    1UNL    H33   78   0.547  -0.052   0.230
    1UNL    H34   79   0.325  -0.234   0.277
    1UNL    H35   80   0.496  -0.099  -0.024
    1UNL    H36   81   0.645  -0.237   0.053
    1UNL    H37   82   0.326  -0.210  -0.096
    1UNL    H38   83   0.364  -0.377   0.089
   0.00000   0.00000   0.00000   0.00000   0.00000   0.00000   0.00000   0.00000   0.00000
Generated with MDTraj, t= 27.0
 83
    1UNL     C1    1  -0.020  -0.411  -0.132
    1UNL     C2    2  -0.157  -0.349  -0.110
    1UNL     C3    3  -0.279  -0.415  -0.097
    1UNL     C4    4  -0.400  -0.353  -0.077
    1UNL     C5    5  -0.406  -0.216  -0.068
    1UNL     C6    6  -0.541  -0.142  -0.052
    1UNL     C7    7  -0.650  -0.212  -0.141
    1UNL     C8    8  -0.588  -0.135   0.094
    1UNL     C9    9  -0.291  -0.143  -0.074
    1UNL    C10   10  -0.169  -0.211  -0.091
    1UNL     O1   11  -0.045  -0.136  -0.086
    1UNL    C11   12  -0.060  -0.004  -0.026
    1UNL     O2   13  -0.158   0.077  -0.092
    1UNL    C12   14  -0.152   0.218  -0.050
    1UNL    C13   15  -0.282   0.283  -0.092
    1UNL     O3   16  -0.317   0.386  -0.003
    1UNL    C14   17  -0.451   0.387   0.008
    1UNL     O4   18  -0.522   0.321  -0.063
    1UNL    C15   19  -0.508   0.498   0.097
    1UNL    C16   20  -0.535   0.468   0.241
    1UNL     O5   21  -0.478   0.519   0.337
    1UNL     O6   22  -0.642   0.384   0.266
    1UNL    C17   23  -0.021   0.285  -0.110
    1UNL     O7   24  -0.046   0.348  -0.235
    1UNL    C18   25   0.085   0.177  -0.140
    1UNL     O8   26   0.053   0.112  -0.262
    1UNL    C19   27   0.084   0.069  -0.031
    1UNL     O9   28   0.190  -0.018  -0.056
    1UNL    C20   29   0.197  -0.109   0.048
    1UNL    O10   30   0.214  -0.030   0.172
    1UNL    C21   31   0.350   0.023   0.191
    1UNL    C22   32   0.381   0.144   0.104
    1UNL    O11   33   0.524   0.168   0.096
    1UNL    C23   34   0.568   0.136  -0.029
    1UNL    O12   35   0.504   0.090  -0.115
    1UNL    C24   36   0.722   0.157  -0.056
    1UNL    C25   37   0.808   0.035  -0.010
    1UNL    O13   38   0.765  -0.078  -0.023
    1UNL    O14   39   0.932   0.057   0.032
    1UNL    C26   40   0.461  -0.088   0.169
    1UNL    O15   41   0.446  -0.193   0.261
    1UNL    C27   42   0.445  -0.152   0.025
    1UNL    O16   43   0.548  -0.243  -0.000
    1UNL    C28   44   0.305  -0.220   0.022
    1UNL    O17   45   0.293  -0.328   0.117
    1UNL     H1   46  -0.009  -0.507  -0.085
    1UNL     H2   47   0.007  -0.417  -0.238
    1UNL     H3   48   0.054  -0.359  -0.060
    1UNL     H4   49  -0.287  -0.524  -0.115
    1UNL     H5   50  -0.489  -0.415  -0.073
    1UNL     H6   51  -0.527  -0.038  -0.083
    1UNL     H7   52  -0.740  -0.163  -0.114
    1UNL     H8   53  -0.662  -0.315  -0.127
    1UNL     H9   54  -0.647  -0.191  -0.246
    1UNL    H10   55  -0.635  -0.226   0.135
    1UNL    H11   56  -0.653  -0.058   0.118
    1UNL    H12   57  -0.496  -0.102   0.151
    1UNL    H13   58  -0.300  -0.035  -0.042
    1UNL    H14   59  -0.096  -0.027   0.072
    1UNL    H15   60  -0.142   0.225   0.062
    1UNL    H16   61  -0.358   0.199  -0.092
    1UNL    H17   62  -0.261   0.320  -0.196
    1UNL    H18   63  -0.431   0.574   0.106
    1UNL    H19   64  -0.591   0.552   0.051
    1UNL    H20   65  -0.648   0.371   0.366
    1UNL    H21   66   0.031   0.360  -0.047
    1UNL    H22   67  -0.043   0.284  -0.304
    1UNL    H23   68   0.181   0.218  -0.162
    1UNL    H24   69  -0.006   0.032  -0.253
    1UNL    H25   70   0.093   0.108   0.072
    1UNL    H26   71   0.103  -0.172   0.051
    1UNL    H27   72   0.359   0.046   0.303
    1UNL    H28   73   0.348   0.128   0.001
    1UNL    H29   74   0.330   0.229   0.137
    1UNL    H30   75   0.730   0.162  -0.166
    1UNL    H31   76   0.758   0.253  -0.018
    1UNL    H32   77   0.977  -0.031   0.047
    1UNL    H33   78   0.568  -0.051   0.172
    1UNL    H34   79   0.347  -0.194   0.262
    1UNL    H35   80   0.438  -0.071  -0.055
    1UNL    H36   81   0.627  -0.196  -0.012
    1UNL    H37   82   0.297  -0.258  -0.079
    1UNL    H38   83   0.390  -0.359   0.139
   0.00000   0.00000   0.00000   0.00000   0.00000   0.00000   0.00000   0.00000   0.00000
Generated with MDTraj, t= 28.0
 83
    1UNL     C1    1  -0.051  -0.407  -0.123
    1UNL     C2    2  -0.176  -0.333  -0.102
    1UNL     C3    3  -0.295  -0.408  -0.098
    1UNL     C4    4  -0.419  -0.348  -0.081
    1UNL     C5    5  -0.419  -0.205  -0.078
    1UNL     C6    6  -0.548  -0.133  -0.043
    1UNL     C7    7  -0.669  -0.184  -0.130
    1UNL     C8    8  -0.591  -0.155   0.099
    1UNL     C9    9  -0.301  -0.135  -0.073
    1UNL    C10   10  -0.180  -0.195  -0.098
    1UNL     O1   11  -0.064  -0.125  -0.104
    1UNL    C11   12  -0.065   0.001  -0.038
    1UNL     O2   13  -0.163   0.092  -0.095
    1UNL    C12   14  -0.144   0.232  -0.064
    1UNL    C13   15  -0.271   0.311  -0.097
    1UNL     O3   16  -0.325   0.397   0.004
    1UNL    C14   17  -0.462   0.383   0.014
    1UNL     O4   18  -0.527   0.300  -0.045
    1UNL    C15   19  -0.523   0.496   0.093
    1UNL    C16   20  -0.532   0.461   0.234
    1UNL     O5   21  -0.470   0.521   0.316
    1UNL     O6   22  -0.613   0.362   0.259
    1UNL    C17   23  -0.013   0.283  -0.137
    1UNL     O7   24  -0.043   0.330  -0.266
    1UNL    C18   25   0.090   0.167  -0.145
    1UNL     O8   26   0.069   0.101  -0.269
    1UNL    C19   27   0.075   0.059  -0.028
    1UNL     O9   28   0.190  -0.023  -0.028
    1UNL    C20   29   0.207  -0.113   0.085
    1UNL    O10   30   0.259  -0.053   0.205
    1UNL    C21   31   0.390   0.005   0.188
    1UNL    C22   32   0.385   0.129   0.100
    1UNL    O11   33   0.514   0.181   0.086
    1UNL    C23   34   0.566   0.157  -0.042
    1UNL    O12   35   0.493   0.123  -0.130
    1UNL    C24   36   0.721   0.173  -0.045
    1UNL    C25   37   0.786   0.057   0.017
    1UNL    O13   38   0.739  -0.056   0.009
    1UNL    O14   39   0.906   0.080   0.081
    1UNL    C26   40   0.490  -0.103   0.139
    1UNL    O15   41   0.537  -0.196   0.238
    1UNL    C27   42   0.439  -0.178   0.009
    1UNL    O16   43   0.537  -0.279  -0.016
    1UNL    C28   44   0.295  -0.236   0.035
    1UNL    O17   45   0.313  -0.352   0.123
    1UNL     H1   46   0.018  -0.386  -0.036
    1UNL     H2   47  -0.063  -0.510  -0.142
    1UNL     H3   48   0.017  -0.362  -0.201
    1UNL     H4   49  -0.288  -0.514  -0.110
    1UNL     H5   50  -0.511  -0.403  -0.090
    1UNL     H6   51  -0.527  -0.029  -0.062
    1UNL     H7   52  -0.747  -0.112  -0.139
    1UNL     H8   53  -0.713  -0.275  -0.098
    1UNL     H9   54  -0.643  -0.202  -0.232
    1UNL    H10   55  -0.586  -0.262   0.121
    1UNL    H11   56  -0.695  -0.128   0.109
    1UNL    H12   57  -0.536  -0.091   0.170
    1UNL    H13   58  -0.291  -0.033  -0.064
    1UNL    H14   59  -0.097  -0.028   0.060
    1UNL    H15   60  -0.139   0.240   0.051
    1UNL    H16   61  -0.349   0.232  -0.122
    1UNL    H17   62  -0.247   0.376  -0.184
    1UNL    H18   63  -0.480   0.593   0.075
    1UNL    H19   64  -0.625   0.514   0.059
    1UNL    H20   65  -0.619   0.347   0.360
    1UNL    H21   66   0.016   0.361  -0.063
    1UNL    H22   67  -0.030   0.250  -0.332
    1UNL    H23   68   0.186   0.212  -0.140
    1UNL    H24   69   0.016   0.018  -0.248
    1UNL    H25   70   0.089   0.119   0.066
    1UNL    H26   71   0.106  -0.164   0.102
    1UNL    H27   72   0.417   0.025   0.293
    1UNL    H28   73   0.330   0.112   0.004
    1UNL    H29   74   0.333   0.205   0.155
    1UNL    H30   75   0.746   0.170  -0.149
    1UNL    H31   76   0.756   0.272  -0.001
    1UNL    H32   77   0.935  -0.006   0.120
    1UNL    H33   78   0.587  -0.052   0.112
    1UNL    H34   79   0.462  -0.258   0.240
    1UNL    H35   80   0.434  -0.097  -0.068
    1UNL    H36   81   0.627  -0.224  -0.009
    1UNL    H37   82   0.255  -0.265  -0.064
    1UNL    H38   83   0.370  -0.410   0.079
   0.00000   0.00000   0.00000   0.00000   0.00000   0.00000   0.00000   0.00000   0.00000
Generated with MDTraj, t= 29.0
 83
    1UNL     C1    1  -0.055  -0.385  -0.133
    1UNL     C2    2  -0.184  -0.324  -0.106
    1UNL     C3    3  -0.299  -0.395  -0.100
    1UNL     C4    4  -0.420  -0.332  -0.085
    1UNL     C5    5  -0.432  -0.192  -0.069
    1UNL     C6    6  -0.564  -0.122  -0.036
    1UNL     C7    7  -0.675  -0.149  -0.136
    1UNL     C8    8  -0.600  -0.153   0.106
    1UNL     C9    9  -0.309  -0.127  -0.068
    1UNL    C10   10  -0.180  -0.185  -0.077
    1UNL     O1   11  -0.055  -0.124  -0.070
    1UNL    C11   12  -0.056   0.003  -0.002
    1UNL     O2   13  -0.163   0.085  -0.066
    1UNL    C12   14  -0.146   0.227  -0.050
    1UNL    C13   15  -0.265   0.296  -0.110
    1UNL     O3   16  -0.316   0.401  -0.029
    1UNL    C14   17  -0.451   0.383  -0.007
    1UNL     O4   18  -0.502   0.285  -0.055
    1UNL    C15   19  -0.524   0.471   0.083
    1UNL    C16   20  -0.516   0.445   0.228
    1UNL     O5   21  -0.454   0.508   0.311
    1UNL     O6   22  -0.582   0.332   0.268
    1UNL    C17   23  -0.012   0.270  -0.128
    1UNL     O7   24  -0.042   0.302  -0.266
    1UNL    C18   25   0.093   0.159  -0.138
    1UNL     O8   26   0.063   0.074  -0.250
    1UNL    C19   27   0.087   0.069  -0.018
    1UNL     O9   28   0.183  -0.030  -0.040
    1UNL    C20   29   0.206  -0.126   0.064
    1UNL    O10   30   0.245  -0.057   0.178
    1UNL    C21   31   0.378   0.001   0.179
    1UNL    C22   32   0.388   0.134   0.104
    1UNL    O11   33   0.522   0.178   0.089
    1UNL    C23   34   0.560   0.155  -0.039
    1UNL    O12   35   0.484   0.124  -0.130
    1UNL    C24   36   0.705   0.167  -0.058
    1UNL    C25   37   0.781   0.066   0.025
    1UNL    O13   38   0.773  -0.050  -0.007
    1UNL    O14   39   0.870   0.102   0.118
    1UNL    C26   40   0.482  -0.103   0.137
    1UNL    O15   41   0.499  -0.190   0.245
    1UNL    C27   42   0.445  -0.169   0.003
    1UNL    O16   43   0.545  -0.265  -0.035
    1UNL    C28   44   0.307  -0.232   0.021
    1UNL    O17   45   0.316  -0.340   0.111
    1UNL     H1   46   0.012  -0.303  -0.181
    1UNL     H2   47  -0.010  -0.410  -0.039
    1UNL     H3   48  -0.051  -0.473  -0.195
    1UNL     H4   49  -0.302  -0.499  -0.139
    1UNL     H5   50  -0.516  -0.383  -0.091
    1UNL     H6   51  -0.550  -0.016  -0.044
    1UNL     H7   52  -0.756  -0.085  -0.106
    1UNL     H8   53  -0.705  -0.252  -0.139
    1UNL     H9   54  -0.654  -0.114  -0.234
    1UNL    H10   55  -0.641  -0.252   0.117
    1UNL    H11   56  -0.680  -0.078   0.134
    1UNL    H12   57  -0.519  -0.129   0.172
    1UNL    H13   58  -0.302  -0.025  -0.041
    1UNL    H14   59  -0.083  -0.023   0.100
    1UNL    H15   60  -0.133   0.246   0.063
    1UNL    H16   61  -0.350   0.223  -0.118
    1UNL    H17   62  -0.242   0.347  -0.204
    1UNL    H18   63  -0.491   0.570   0.064
    1UNL    H19   64  -0.630   0.473   0.053
    1UNL    H20   65  -0.574   0.338   0.368
    1UNL    H21   66   0.037   0.355  -0.074
    1UNL    H22   67  -0.025   0.232  -0.324
    1UNL    H23   68   0.189   0.200  -0.166
    1UNL    H24   69   0.030  -0.006  -0.204
    1UNL    H25   70   0.126   0.127   0.072
    1UNL    H26   71   0.104  -0.175   0.085
    1UNL    H27   72   0.393   0.024   0.282
    1UNL    H28   73   0.340   0.109   0.002
    1UNL    H29   74   0.322   0.216   0.139
    1UNL    H30   75   0.732   0.174  -0.161
    1UNL    H31   76   0.730   0.271  -0.015
    1UNL    H32   77   0.918   0.024   0.154
    1UNL    H33   78   0.585  -0.056   0.124
    1UNL    H34   79   0.416  -0.241   0.262
    1UNL    H35   80   0.436  -0.098  -0.078
    1UNL    H36   81   0.624  -0.219  -0.020
    1UNL    H37   82   0.275  -0.261  -0.086
    1UNL    H38   83   0.400  -0.394   0.078
   0.00000   0.00000   0.00000   0.00000   0.00000   0.00000   0.00000   0.00000   0.00000
Generated with MDTraj, t= 30.0
 83
    1UNL     C1    1  -0.064  -0.399  -0.130
    1UNL     C2    2  -0.182  -0.315  -0.107
    1UNL     C3    3  -0.304  -0.371  -0.133
    1UNL     C4    4  -0.424  -0.307  -0.098
    1UNL     C5    5  -0.422  -0.182  -0.035
    1UNL     C6    6  -0.550  -0.094  -0.019
    1UNL     C7    7  -0.630  -0.109  -0.149
    1UNL     C8    8  -0.623  -0.132   0.118
    1UNL     C9    9  -0.296  -0.127  -0.001
    1UNL    C10   10  -0.181  -0.191  -0.047
    1UNL     O1   11  -0.054  -0.131  -0.027
    1UNL    C11   12  -0.051   0.005  -0.001
    1UNL     O2   13  -0.153   0.078  -0.073
    1UNL    C12   14  -0.140   0.221  -0.068
    1UNL    C13   15  -0.271   0.287  -0.118
    1UNL     O3   16  -0.322   0.376  -0.018
    1UNL    C14   17  -0.452   0.360  -0.009
    1UNL     O4   18  -0.510   0.273  -0.067
    1UNL    C15   19  -0.531   0.453   0.084
    1UNL    C16   20  -0.492   0.418   0.232
    1UNL     O5   21  -0.428   0.495   0.299
    1UNL     O6   22  -0.548   0.300   0.267
    1UNL    C17   23  -0.011   0.272  -0.141
    1UNL     O7   24  -0.031   0.329  -0.273
    1UNL    C18   25   0.088   0.150  -0.162
    1UNL     O8   26   0.028   0.062  -0.269
    1UNL    C19   27   0.094   0.068  -0.036
    1UNL     O9   28   0.193  -0.028  -0.061
    1UNL    C20   29   0.212  -0.116   0.046
    1UNL    O10   30   0.231  -0.055   0.174
    1UNL    C21   31   0.356   0.008   0.195
    1UNL    C22   32   0.370   0.128   0.101
    1UNL    O11   33   0.506   0.162   0.080
    1UNL    C23   34   0.552   0.138  -0.041
    1UNL    O12   35   0.474   0.107  -0.134
    1UNL    C24   36   0.698   0.163  -0.058
    1UNL    C25   37   0.789   0.067   0.014
    1UNL    O13   38   0.793  -0.047  -0.027
    1UNL    O14   39   0.838   0.097   0.140
    1UNL    C26   40   0.464  -0.097   0.175
    1UNL    O15   41   0.450  -0.200   0.270
    1UNL    C27   42   0.461  -0.142   0.025
    1UNL    O16   43   0.563  -0.233  -0.014
    1UNL    C28   44   0.327  -0.213   0.004
    1UNL    O17   45   0.328  -0.333   0.073
    1UNL     H1   46  -0.088  -0.472  -0.216
    1UNL     H2   47   0.021  -0.342  -0.172
    1UNL     H3   48  -0.041  -0.452  -0.043
    1UNL     H4   49  -0.310  -0.461  -0.189
    1UNL     H5   50  -0.513  -0.347  -0.144
    1UNL     H6   51  -0.529   0.011  -0.021
    1UNL     H7   52  -0.722  -0.058  -0.132
    1UNL     H8   53  -0.653  -0.215  -0.157
    1UNL     H9   54  -0.596  -0.069  -0.243
    1UNL    H10   55  -0.668  -0.230   0.120
    1UNL    H11   56  -0.710  -0.060   0.139
    1UNL    H12   57  -0.562  -0.115   0.203
    1UNL    H13   58  -0.288  -0.026   0.045
    1UNL    H14   59  -0.079   0.015   0.106
    1UNL    H15   60  -0.125   0.246   0.044
    1UNL    H16   61  -0.349   0.213  -0.147
    1UNL    H17   62  -0.255   0.357  -0.198
    1UNL    H18   63  -0.524   0.557   0.058
    1UNL    H19   64  -0.640   0.439   0.069
    1UNL    H20   65  -0.527   0.283   0.359
    1UNL    H21   66   0.041   0.355  -0.089
    1UNL    H22   67  -0.034   0.256  -0.347
    1UNL    H23   68   0.186   0.187  -0.198
    1UNL    H24   69  -0.022  -0.001  -0.209
    1UNL    H25   70   0.125   0.129   0.055
    1UNL    H26   71   0.122  -0.186   0.064
    1UNL    H27   72   0.357   0.052   0.290
    1UNL    H28   73   0.334   0.103  -0.006
    1UNL    H29   74   0.304   0.216   0.126
    1UNL    H30   75   0.729   0.158  -0.161
    1UNL    H31   76   0.723   0.267  -0.021
    1UNL    H32   77   0.894   0.022   0.164
    1UNL    H33   78   0.565  -0.049   0.190
    1UNL    H34   79   0.384  -0.268   0.248
    1UNL    H35   80   0.460  -0.062  -0.045
    1UNL    H36   81   0.654  -0.186  -0.030
    1UNL    H37   82   0.309  -0.244  -0.106
    1UNL    H38   83   0.415  -0.383   0.053
   0.00000   0.00000   0.00000   0.00000   0.00000   0.00000   0.00000   0.00000   0.00000
Generated with MDTraj, t= 31.0
 83
    1UNL     C1    1  -0.079  -0.382  -0.136
    1UNL     C2    2  -0.192  -0.309  -0.095
    1UNL     C3    3  -0.321  -0.365  -0.108
    1UNL     C4    4  -0.439  -0.285  -0.087
    1UNL     C5    5  -0.422  -0.152  -0.044
    1UNL     C6    6  -0.539  -0.067  -0.005
    1UNL     C7    7  -0.616  -0.016  -0.129
    1UNL     C8    8  -0.612  -0.129   0.105
    1UNL     C9    9  -0.290  -0.104  -0.011
    1UNL    C10   10  -0.175  -0.176  -0.042
    1UNL     O1   11  -0.047  -0.126  -0.027
    1UNL    C11   12  -0.042   0.010  -0.009
    1UNL     O2   13  -0.149   0.078  -0.077
    1UNL    C12   14  -0.140   0.224  -0.075
    1UNL    C13   15  -0.284   0.275  -0.121
    1UNL     O3   16  -0.338   0.356  -0.022
    1UNL    C14   17  -0.475   0.334  -0.013
    1UNL     O4   18  -0.535   0.253  -0.083
    1UNL    C15   19  -0.544   0.408   0.099
    1UNL    C16   20  -0.476   0.387   0.231
    1UNL     O5   21  -0.416   0.472   0.293
    1UNL     O6   22  -0.509   0.267   0.285
    1UNL    C17   23  -0.022   0.271  -0.159
    1UNL     O7   24  -0.064   0.325  -0.283
    1UNL    C18   25   0.078   0.147  -0.183
    1UNL     O8   26   0.025   0.076  -0.293
    1UNL    C19   27   0.100   0.062  -0.064
    1UNL     O9   28   0.199  -0.045  -0.089
    1UNL    C20   29   0.225  -0.126   0.027
    1UNL    O10   30   0.232  -0.057   0.150
    1UNL    C21   31   0.355   0.010   0.186
    1UNL    C22   32   0.375   0.132   0.097
    1UNL    O11   33   0.509   0.180   0.089
    1UNL    C23   34   0.558   0.162  -0.035
    1UNL    O12   35   0.485   0.137  -0.134
    1UNL    C24   36   0.701   0.162  -0.058
    1UNL    C25   37   0.768   0.060   0.028
    1UNL    O13   38   0.773  -0.050  -0.020
    1UNL    O14   39   0.819   0.088   0.147
    1UNL    C26   40   0.479  -0.086   0.185
    1UNL    O15   41   0.460  -0.184   0.286
    1UNL    C27   42   0.481  -0.159   0.045
    1UNL    O16   43   0.573  -0.265   0.040
    1UNL    C28   44   0.343  -0.226   0.008
    1UNL    O17   45   0.329  -0.348   0.075
    1UNL     H1   46  -0.080  -0.478  -0.084
    1UNL     H2   47  -0.092  -0.423  -0.243
    1UNL     H3   48   0.010  -0.329  -0.110
    1UNL     H4   49  -0.322  -0.466  -0.155
    1UNL     H5   50  -0.530  -0.334  -0.123
    1UNL     H6   51  -0.493   0.022   0.033
    1UNL     H7   52  -0.660   0.082  -0.122
    1UNL     H8   53  -0.686  -0.090  -0.166
    1UNL     H9   54  -0.548  -0.004  -0.213
    1UNL    H10   55  -0.659  -0.220   0.069
    1UNL    H11   56  -0.698  -0.058   0.125
    1UNL    H12   57  -0.563  -0.143   0.199
    1UNL    H13   58  -0.282  -0.011   0.035
    1UNL    H14   59  -0.044   0.036   0.101
    1UNL    H15   60  -0.135   0.257   0.034
    1UNL    H16   61  -0.366   0.204  -0.142
    1UNL    H17   62  -0.275   0.344  -0.201
    1UNL    H18   63  -0.578   0.507   0.078
    1UNL    H19   64  -0.640   0.355   0.116
    1UNL    H20   65  -0.466   0.270   0.369
    1UNL    H21   66   0.028   0.351  -0.103
    1UNL    H22   67  -0.066   0.257  -0.350
    1UNL    H23   68   0.178   0.189  -0.208
    1UNL    H24   69  -0.028   0.010  -0.244
    1UNL    H25   70   0.149   0.119   0.020
    1UNL    H26   71   0.130  -0.190   0.046
    1UNL    H27   72   0.347   0.043   0.286
    1UNL    H28   73   0.359   0.103  -0.013
    1UNL    H29   74   0.315   0.225   0.120
    1UNL    H30   75   0.727   0.135  -0.164
    1UNL    H31   76   0.751   0.256  -0.034
    1UNL    H32   77   0.843   0.007   0.194
    1UNL    H33   78   0.575  -0.043   0.213
    1UNL    H34   79   0.399  -0.255   0.258
    1UNL    H35   80   0.507  -0.087  -0.031
    1UNL    H36   81   0.660  -0.224   0.045
    1UNL    H37   82   0.342  -0.262  -0.103
    1UNL    H38   83   0.407  -0.400   0.059
   0.00000   0.00000   0.00000   0.00000   0.00000   0.00000   0.00000   0.00000   0.00000
Generated with MDTraj, t= 32.0
 83
    1UNL     C1    1  -0.102  -0.391  -0.136
    1UNL     C2    2  -0.220  -0.307  -0.094
    1UNL     C3    3  -0.349  -0.347  -0.114
    1UNL     C4    4  -0.455  -0.273  -0.075
    1UNL     C5    5  -0.426  -0.144  -0.011
    1UNL     C6    6  -0.541  -0.049   0.017
    1UNL     C7    7  -0.595  -0.007  -0.115
    1UNL     C8    8  -0.648  -0.112   0.108
    1UNL     C9    9  -0.295  -0.105   0.010
    1UNL    C10   10  -0.189  -0.179  -0.046
    1UNL     O1   11  -0.053  -0.130  -0.071
    1UNL    C11   12  -0.040   0.006  -0.029
    1UNL     O2   13  -0.149   0.076  -0.094
    1UNL    C12   14  -0.134   0.222  -0.089
    1UNL    C13   15  -0.268   0.289  -0.126
    1UNL     O3   16  -0.332   0.318  -0.002
    1UNL    C14   17  -0.464   0.311  -0.012
    1UNL     O4   18  -0.520   0.256  -0.104
    1UNL    C15   19  -0.544   0.360   0.108
    1UNL    C16   20  -0.466   0.353   0.242
    1UNL     O5   21  -0.414   0.449   0.297
    1UNL     O6   22  -0.464   0.220   0.285
    1UNL    C17   23  -0.016   0.264  -0.177
    1UNL     O7   24  -0.059   0.300  -0.302
    1UNL    C18   25   0.088   0.147  -0.195
    1UNL     O8   26   0.039   0.055  -0.292
    1UNL    C19   27   0.101   0.080  -0.068
    1UNL     O9   28   0.205  -0.017  -0.075
    1UNL    C20   29   0.204  -0.110   0.035
    1UNL    O10   30   0.220  -0.048   0.167
    1UNL    C21   31   0.346   0.027   0.177
    1UNL    C22   32   0.381   0.140   0.072
    1UNL    O11   33   0.514   0.171   0.081
    1UNL    C23   34   0.580   0.171  -0.037
    1UNL    O12   35   0.518   0.173  -0.145
    1UNL    C24   36   0.730   0.163  -0.046
    1UNL    C25   37   0.782   0.053   0.048
    1UNL    O13   38   0.771  -0.065   0.012
    1UNL    O14   39   0.833   0.086   0.170
    1UNL    C26   40   0.461  -0.080   0.168
    1UNL    O15   41   0.448  -0.176   0.269
    1UNL    C27   42   0.458  -0.148   0.026
    1UNL    O16   43   0.557  -0.247   0.017
    1UNL    C28   44   0.318  -0.217   0.013
    1UNL    O17   45   0.312  -0.321   0.104
    1UNL     H1   46  -0.027  -0.383  -0.061
    1UNL     H2   47  -0.127  -0.503  -0.127
    1UNL     H3   48  -0.053  -0.349  -0.228
    1UNL     H4   49  -0.364  -0.431  -0.175
    1UNL     H5   50  -0.553  -0.299  -0.101
    1UNL     H6   51  -0.504   0.041   0.067
    1UNL     H7   52  -0.677   0.061  -0.091
    1UNL     H8   53  -0.634  -0.092  -0.168
    1UNL     H9   54  -0.531   0.056  -0.179
    1UNL    H10   55  -0.700  -0.193   0.054
    1UNL    H11   56  -0.719  -0.033   0.132
    1UNL    H12   57  -0.611  -0.138   0.207
    1UNL    H13   58  -0.286  -0.005   0.059
    1UNL    H14   59  -0.050   0.020   0.084
    1UNL    H15   60  -0.110   0.249   0.015
    1UNL    H16   61  -0.329   0.232  -0.196
    1UNL    H17   62  -0.251   0.383  -0.171
    1UNL    H18   63  -0.579   0.462   0.096
    1UNL    H19   64  -0.632   0.299   0.127
    1UNL    H20   65  -0.416   0.210   0.366
    1UNL    H21   66   0.033   0.349  -0.128
    1UNL    H22   67  -0.067   0.216  -0.357
    1UNL    H23   68   0.177   0.193  -0.248
    1UNL    H24   69  -0.010  -0.014  -0.236
    1UNL    H25   70   0.133   0.152   0.012
    1UNL    H26   71   0.098  -0.154   0.032
    1UNL    H27   72   0.349   0.072   0.276
    1UNL    H28   73   0.359   0.104  -0.033
    1UNL    H29   74   0.325   0.234   0.088
    1UNL    H30   75   0.766   0.134  -0.151
    1UNL    H31   76   0.773   0.256  -0.019
    1UNL    H32   77   0.853   0.009   0.228
    1UNL    H33   78   0.559  -0.041   0.185
    1UNL    H34   79   0.353  -0.202   0.267
    1UNL    H35   80   0.485  -0.070  -0.047
    1UNL    H36   81   0.645  -0.193   0.032
    1UNL    H37   82   0.307  -0.268  -0.088
    1UNL    H38   83   0.403  -0.366   0.101
   0.00000   0.00000   0.00000   0.00000   0.00000   0.00000   0.00000   0.00000   0.00000
Generated with MDTraj, t= 33.0
 83
    1UNL     C1    1  -0.112  -0.383  -0.164
    1UNL     C2    2  -0.220  -0.303  -0.101
    1UNL     C3    3  -0.346  -0.363  -0.074
    1UNL     C4    4  -0.454  -0.290  -0.030
    1UNL     C5    5  -0.436  -0.150  -0.016
    1UNL     C6    6  -0.545  -0.054   0.020
    1UNL     C7    7  -0.621  -0.005  -0.103
    1UNL     C8    8  -0.646  -0.106   0.131
    1UNL     C9    9  -0.311  -0.095  -0.030
    1UNL    C10   10  -0.198  -0.168  -0.069
    1UNL     O1   11  -0.077  -0.115  -0.074
    1UNL    C11   12  -0.057   0.021  -0.038
    1UNL     O2   13  -0.158   0.111  -0.094
    1UNL    C12   14  -0.113   0.248  -0.102
    1UNL    C13   15  -0.234   0.344  -0.100
    1UNL     O3   16  -0.313   0.330   0.021
    1UNL    C14   17  -0.452   0.322  -0.007
    1UNL     O4   18  -0.503   0.315  -0.118
    1UNL    C15   19  -0.541   0.302   0.108
    1UNL    C16   20  -0.465   0.299   0.244
    1UNL     O5   21  -0.436   0.397   0.308
    1UNL     O6   22  -0.425   0.177   0.274
    1UNL    C17   23  -0.008   0.258  -0.217
    1UNL     O7   24  -0.069   0.268  -0.342
    1UNL    C18   25   0.085   0.124  -0.217
    1UNL     O8   26   0.022   0.027  -0.307
    1UNL    C19   27   0.090   0.064  -0.074
    1UNL     O9   28   0.184  -0.036  -0.076
    1UNL    C20   29   0.193  -0.099   0.045
    1UNL    O10   30   0.218  -0.012   0.153
    1UNL    C21   31   0.353   0.035   0.169
    1UNL    C22   32   0.404   0.150   0.082
    1UNL    O11   33   0.536   0.191   0.091
    1UNL    C23   34   0.601   0.175  -0.033
    1UNL    O12   35   0.546   0.152  -0.141
    1UNL    C24   36   0.756   0.172  -0.029
    1UNL    C25   37   0.797   0.061   0.062
    1UNL    O13   38   0.766  -0.055   0.036
    1UNL    O14   39   0.857   0.097   0.179
    1UNL    C26   40   0.455  -0.079   0.158
    1UNL    O15   41   0.449  -0.169   0.268
    1UNL    C27   42   0.438  -0.154   0.021
    1UNL    O16   43   0.542  -0.246   0.020
    1UNL    C28   44   0.294  -0.219   0.024
    1UNL    O17   45   0.274  -0.315   0.120
    1UNL     H1   46  -0.043  -0.314  -0.206
    1UNL     H2   47  -0.056  -0.439  -0.087
    1UNL     H3   48  -0.142  -0.441  -0.260
    1UNL     H4   49  -0.343  -0.468  -0.108
    1UNL     H5   50  -0.555  -0.332  -0.027
    1UNL     H6   51  -0.494   0.029   0.070
    1UNL     H7   52  -0.695   0.064  -0.061
    1UNL     H8   53  -0.662  -0.089  -0.158
    1UNL     H9   54  -0.556   0.060  -0.164
    1UNL    H10   55  -0.712  -0.181   0.083
    1UNL    H11   56  -0.705  -0.029   0.170
    1UNL    H12   57  -0.596  -0.148   0.221
    1UNL    H13   58  -0.293   0.009  -0.021
    1UNL    H14   59  -0.079   0.037   0.073
    1UNL    H15   60  -0.053   0.279  -0.019
    1UNL    H16   61  -0.287   0.308  -0.191
    1UNL    H17   62  -0.217   0.448  -0.115
    1UNL    H18   63  -0.618   0.377   0.118
    1UNL    H19   64  -0.584   0.205   0.097
    1UNL    H20   65  -0.365   0.174   0.352
    1UNL    H21   66   0.055   0.346  -0.201
    1UNL    H22   67  -0.113   0.179  -0.364
    1UNL    H23   68   0.191   0.149  -0.249
    1UNL    H24   69  -0.030  -0.027  -0.248
    1UNL    H25   70   0.135   0.136  -0.002
    1UNL    H26   71   0.085  -0.132   0.061
    1UNL    H27   72   0.358   0.074   0.274
    1UNL    H28   73   0.383   0.112  -0.018
    1UNL    H29   74   0.338   0.236   0.092
    1UNL    H30   75   0.786   0.150  -0.138
    1UNL    H31   76   0.798   0.265   0.001
    1UNL    H32   77   0.875   0.016   0.232
    1UNL    H33   78   0.554  -0.043   0.162
    1UNL    H34   79   0.372  -0.224   0.246
    1UNL    H35   80   0.454  -0.086  -0.070
    1UNL    H36   81   0.623  -0.194   0.016
    1UNL    H37   82   0.268  -0.269  -0.070
    1UNL    H38   83   0.340  -0.378   0.108
   0.00000   0.00000   0.00000   0.00000   0.00000   0.00000   0.00000   0.00000   0.00000
Generated with MDTraj, t= 34.0
 83
    1UNL     C1    1  -0.102  -0.367  -0.128
    1UNL     C2    2  -0.223  -0.288  -0.096
    1UNL     C3    3  -0.345  -0.346  -0.064
    1UNL     C4    4  -0.450  -0.270  -0.024
    1UNL     C5    5  -0.440  -0.135  -0.000
    1UNL     C6    6  -0.563  -0.058   0.050
    1UNL     C7    7  -0.641  -0.001  -0.066
    1UNL     C8    8  -0.651  -0.139   0.142
    1UNL     C9    9  -0.321  -0.074  -0.033
    1UNL    C10   10  -0.208  -0.148  -0.079
    1UNL     O1   11  -0.086  -0.099  -0.115
    1UNL    C11   12  -0.044   0.028  -0.054
    1UNL     O2   13  -0.141   0.131  -0.068
    1UNL    C12   14  -0.094   0.265  -0.099
    1UNL    C13   15  -0.228   0.341  -0.108
    1UNL     O3   16  -0.299   0.343   0.014
    1UNL    C14   17  -0.431   0.326  -0.010
    1UNL     O4   18  -0.478   0.322  -0.122
    1UNL    C15   19  -0.519   0.319   0.111
    1UNL    C16   20  -0.461   0.258   0.229
    1UNL     O5   21  -0.451   0.322   0.333
    1UNL     O6   22  -0.408   0.132   0.218
    1UNL    C17   23  -0.021   0.267  -0.239
    1UNL     O7   24  -0.128   0.256  -0.338
    1UNL    C18   25   0.067   0.140  -0.249
    1UNL     O8   26   0.024   0.049  -0.345
    1UNL    C19   27   0.093   0.077  -0.106
    1UNL     O9   28   0.188  -0.025  -0.101
    1UNL    C20   29   0.197  -0.095   0.027
    1UNL    O10   30   0.216  -0.022   0.142
    1UNL    C21   31   0.345   0.039   0.156
    1UNL    C22   32   0.376   0.149   0.059
    1UNL    O11   33   0.509   0.195   0.076
    1UNL    C23   34   0.591   0.158  -0.027
    1UNL    O12   35   0.549   0.113  -0.128
    1UNL    C24   36   0.739   0.156  -0.005
    1UNL    C25   37   0.793   0.049   0.085
    1UNL    O13   38   0.748  -0.065   0.079
    1UNL    O14   39   0.899   0.082   0.164
    1UNL    C26   40   0.455  -0.068   0.160
    1UNL    O15   41   0.460  -0.148   0.277
    1UNL    C27   42   0.451  -0.154   0.041
    1UNL    O16   43   0.543  -0.257   0.049
    1UNL    C28   44   0.311  -0.207   0.030
    1UNL    O17   45   0.292  -0.300   0.135
    1UNL     H1   46  -0.075  -0.359  -0.234
    1UNL     H2   47  -0.022  -0.340  -0.061
    1UNL     H3   48  -0.119  -0.480  -0.113
    1UNL     H4   49  -0.359  -0.449  -0.085
    1UNL     H5   50  -0.543  -0.324  -0.026
    1UNL     H6   51  -0.523   0.021   0.114
    1UNL     H7   52  -0.700   0.088  -0.036
    1UNL     H8   53  -0.696  -0.073  -0.127
    1UNL     H9   54  -0.560   0.047  -0.123
    1UNL    H10   55  -0.695  -0.230   0.099
    1UNL    H11   56  -0.730  -0.079   0.170
    1UNL    H12   57  -0.605  -0.160   0.242
    1UNL    H13   58  -0.313   0.031  -0.018
    1UNL    H14   59  -0.041   0.008   0.058
    1UNL    H15   60  -0.034   0.315  -0.029
    1UNL    H16   61  -0.292   0.305  -0.197
    1UNL    H17   62  -0.194   0.440  -0.132
    1UNL    H18   63  -0.558   0.417   0.141
    1UNL    H19   64  -0.597   0.250   0.086
    1UNL    H20   65  -0.342   0.122   0.294
    1UNL    H21   66   0.028   0.362  -0.260
    1UNL    H22   67  -0.146   0.170  -0.371
    1UNL    H23   68   0.166   0.178  -0.292
    1UNL    H24   69  -0.008  -0.029  -0.288
    1UNL    H25   70   0.138   0.155  -0.044
    1UNL    H26   71   0.099  -0.148   0.042
    1UNL    H27   72   0.343   0.091   0.259
    1UNL    H28   73   0.353   0.109  -0.037
    1UNL    H29   74   0.302   0.224   0.080
    1UNL    H30   75   0.780   0.147  -0.108
    1UNL    H31   76   0.761   0.256   0.034
    1UNL    H32   77   0.910   0.006   0.225
    1UNL    H33   78   0.552  -0.024   0.168
    1UNL    H34   79   0.370  -0.185   0.303
    1UNL    H35   80   0.469  -0.095  -0.055
    1UNL    H36   81   0.627  -0.212   0.086
    1UNL    H37   82   0.299  -0.275  -0.052
    1UNL    H38   83   0.374  -0.359   0.134
   0.00000   0.00000   0.00000   0.00000   0.00000   0.00000   0.00000   0.00000   0.00000
Generated with MDTraj, t= 35.0
 83
    1UNL     C1    1  -0.088  -0.367  -0.133
    1UNL     C2    2  -0.215  -0.290  -0.089
    1UNL     C3    3  -0.336  -0.347  -0.067
    1UNL     C4    4  -0.447  -0.271  -0.017
    1UNL     C5    5  -0.433  -0.132  -0.004
    1UNL     C6    6  -0.548  -0.053   0.046
    1UNL     C7    7  -0.635  -0.003  -0.071
    1UNL     C8    8  -0.643  -0.145   0.144
    1UNL     C9    9  -0.308  -0.078  -0.028
    1UNL    C10   10  -0.199  -0.153  -0.065
    1UNL     O1   11  -0.067  -0.099  -0.082
    1UNL    C11   12  -0.053   0.039  -0.045
    1UNL     O2   13  -0.158   0.128  -0.081
    1UNL    C12   14  -0.112   0.265  -0.111
    1UNL    C13   15  -0.235   0.358  -0.129
    1UNL     O3   16  -0.283   0.392   0.002
    1UNL    C14   17  -0.410   0.340   0.005
    1UNL     O4   18  -0.467   0.277  -0.084
    1UNL    C15   19  -0.493   0.349   0.137
    1UNL    C16   20  -0.437   0.238   0.231
    1UNL     O5   21  -0.471   0.248   0.348
    1UNL     O6   22  -0.363   0.141   0.183
    1UNL    C17   23  -0.026   0.264  -0.237
    1UNL     O7   24  -0.111   0.249  -0.348
    1UNL    C18   25   0.071   0.142  -0.231
    1UNL     O8   26   0.023   0.034  -0.314
    1UNL    C19   27   0.091   0.083  -0.094
    1UNL     O9   28   0.176  -0.023  -0.107
    1UNL    C20   29   0.194  -0.084   0.016
    1UNL    O10   30   0.198  -0.004   0.127
    1UNL    C21   31   0.324   0.064   0.140
    1UNL    C22   32   0.370   0.160   0.030
    1UNL    O11   33   0.502   0.205   0.054
    1UNL    C23   34   0.591   0.133  -0.023
    1UNL    O12   35   0.555   0.058  -0.104
    1UNL    C24   36   0.740   0.148   0.000
    1UNL    C25   37   0.798   0.045   0.092
    1UNL    O13   38   0.741  -0.058   0.119
    1UNL    O14   39   0.919   0.078   0.137
    1UNL    C26   40   0.426  -0.050   0.164
    1UNL    O15   41   0.386  -0.120   0.278
    1UNL    C27   42   0.443  -0.148   0.044
    1UNL    O16   43   0.533  -0.252   0.077
    1UNL    C28   44   0.308  -0.193  -0.001
    1UNL    O17   45   0.274  -0.312   0.073
    1UNL     H1   46  -0.115  -0.425  -0.229
    1UNL     H2   47  -0.001  -0.304  -0.142
    1UNL     H3   48  -0.057  -0.440  -0.058
    1UNL     H4   49  -0.353  -0.451  -0.092
    1UNL     H5   50  -0.546  -0.311  -0.006
    1UNL     H6   51  -0.508   0.026   0.105
    1UNL     H7   52  -0.730   0.041  -0.037
    1UNL     H8   53  -0.658  -0.085  -0.141
    1UNL     H9   54  -0.588   0.079  -0.128
    1UNL    H10   55  -0.703  -0.225   0.103
    1UNL    H11   56  -0.711  -0.077   0.191
    1UNL    H12   57  -0.587  -0.183   0.231
    1UNL    H13   58  -0.316   0.031  -0.022
    1UNL    H14   59  -0.059   0.036   0.066
    1UNL    H15   60  -0.057   0.287  -0.025
    1UNL    H16   61  -0.314   0.302  -0.193
    1UNL    H17   62  -0.206   0.448  -0.181
    1UNL    H18   63  -0.491   0.452   0.173
    1UNL    H19   64  -0.593   0.323   0.111
    1UNL    H20   65  -0.335   0.077   0.254
    1UNL    H21   66   0.034   0.356  -0.247
    1UNL    H22   67  -0.135   0.148  -0.361
    1UNL    H23   68   0.166   0.173  -0.287
    1UNL    H24   69   0.056  -0.048  -0.277
    1UNL    H25   70   0.143   0.141  -0.017
    1UNL    H26   71   0.099  -0.136   0.031
    1UNL    H27   72   0.313   0.136   0.231
    1UNL    H28   73   0.361   0.110  -0.064
    1UNL    H29   74   0.305   0.244   0.031
    1UNL    H30   75   0.782   0.132  -0.097
    1UNL    H31   76   0.765   0.253   0.034
    1UNL    H32   77   0.939   0.007   0.202
    1UNL    H33   78   0.521  -0.007   0.194
    1UNL    H34   79   0.293  -0.143   0.273
    1UNL    H35   80   0.485  -0.088  -0.042
    1UNL    H36   81   0.615  -0.211   0.094
    1UNL    H37   82   0.313  -0.226  -0.101
    1UNL    H38   83   0.361  -0.337   0.120
   0.00000   0.00000   0.00000   0.00000   0.00000   0.00000   0.00000   0.00000   0.00000
Generated with MDTraj, t= 36.0
 83
    1UNL     C1    1  -0.082  -0.350  -0.133
    1UNL     C2    2  -0.201  -0.287  -0.082
    1UNL     C3    3  -0.327  -0.353  -0.074
    1UNL     C4    4  -0.439  -0.278  -0.032
    1UNL     C5    5  -0.429  -0.146   0.008
    1UNL     C6    6  -0.543  -0.051   0.036
    1UNL     C7    7  -0.615  -0.012  -0.091
    1UNL     C8    8  -0.650  -0.109   0.126
    1UNL     C9    9  -0.304  -0.079   0.004
    1UNL    C10   10  -0.192  -0.147  -0.045
    1UNL     O1   11  -0.073  -0.090  -0.092
    1UNL    C11   12  -0.059   0.051  -0.059
    1UNL     O2   13  -0.166   0.135  -0.109
    1UNL    C12   14  -0.128   0.273  -0.143
    1UNL    C13   15  -0.268   0.348  -0.162
    1UNL     O3   16  -0.311   0.402  -0.035
    1UNL    C14   17  -0.401   0.321   0.026
    1UNL     O4   18  -0.452   0.224  -0.023
    1UNL    C15   19  -0.423   0.341   0.175
    1UNL    C16   20  -0.404   0.223   0.256
    1UNL     O5   21  -0.505   0.183   0.318
    1UNL     O6   22  -0.277   0.160   0.249
    1UNL    C17   23  -0.033   0.271  -0.264
    1UNL     O7   24  -0.100   0.281  -0.387
    1UNL    C18   25   0.063   0.143  -0.255
    1UNL     O8   26  -0.001   0.042  -0.331
    1UNL    C19   27   0.085   0.093  -0.111
    1UNL     O9   28   0.179  -0.006  -0.114
    1UNL    C20   29   0.185  -0.074   0.009
    1UNL    O10   30   0.184   0.015   0.119
    1UNL    C21   31   0.319   0.060   0.155
    1UNL    C22   32   0.379   0.132   0.036
    1UNL    O11   33   0.511   0.172   0.066
    1UNL    C23   34   0.596   0.120  -0.029
    1UNL    O12   35   0.571   0.061  -0.128
    1UNL    C24   36   0.745   0.156  -0.006
    1UNL    C25   37   0.795   0.051   0.092
    1UNL    O13   38   0.729  -0.038   0.135
    1UNL    O14   39   0.925   0.069   0.127
    1UNL    C26   40   0.417  -0.058   0.197
    1UNL    O15   41   0.357  -0.128   0.295
    1UNL    C27   42   0.433  -0.144   0.068
    1UNL    O16   43   0.517  -0.257   0.087
    1UNL    C28   44   0.297  -0.185   0.018
    1UNL    O17   45   0.237  -0.288   0.102
    1UNL     H1   46  -0.102  -0.462  -0.156
    1UNL     H2   47  -0.029  -0.299  -0.215
    1UNL     H3   48  -0.002  -0.340  -0.062
    1UNL     H4   49  -0.340  -0.452  -0.118
    1UNL     H5   50  -0.538  -0.325  -0.046
    1UNL     H6   51  -0.503   0.036   0.084
    1UNL     H7   52  -0.692   0.067  -0.074
    1UNL     H8   53  -0.660  -0.094  -0.153
    1UNL     H9   54  -0.539   0.042  -0.152
    1UNL    H10   55  -0.713  -0.182   0.080
    1UNL    H11   56  -0.713  -0.022   0.162
    1UNL    H12   57  -0.604  -0.154   0.214
    1UNL    H13   58  -0.294   0.027   0.014
    1UNL    H14   59  -0.068   0.063   0.049
    1UNL    H15   60  -0.085   0.305  -0.051
    1UNL    H16   61  -0.354   0.281  -0.196
    1UNL    H17   62  -0.258   0.430  -0.230
    1UNL    H18   63  -0.342   0.409   0.195
    1UNL    H19   64  -0.523   0.382   0.179
    1UNL    H20   65  -0.287   0.090   0.314
    1UNL    H21   66   0.034   0.356  -0.247
    1UNL    H22   67  -0.124   0.194  -0.414
    1UNL    H23   68   0.161   0.173  -0.307
    1UNL    H24   69  -0.088   0.020  -0.283
    1UNL    H25   70   0.126   0.172  -0.049
    1UNL    H26   71   0.086  -0.117   0.014
    1UNL    H27   72   0.312   0.137   0.237
    1UNL    H28   73   0.386   0.069  -0.053
    1UNL    H29   74   0.329   0.226   0.012
    1UNL    H30   75   0.797   0.136  -0.095
    1UNL    H31   76   0.769   0.259   0.036
    1UNL    H32   77   0.947  -0.008   0.181
    1UNL    H33   78   0.519  -0.037   0.239
    1UNL    H34   79   0.275  -0.173   0.258
    1UNL    H35   80   0.484  -0.084  -0.014
    1UNL    H36   81   0.615  -0.225   0.093
    1UNL    H37   82   0.312  -0.227  -0.080
    1UNL    H38   83   0.300  -0.355   0.112
   0.00000   0.00000   0.00000   0.00000   0.00000   0.00000   0.00000   0.00000   0.00000
Generated with MDTraj, t= 37.0
 83
    1UNL     C1    1  -0.094  -0.363  -0.129
    1UNL     C2    2  -0.210  -0.281  -0.079
    1UNL     C3    3  -0.326  -0.345  -0.039
    1UNL     C4    4  -0.433  -0.269  -0.005
    1UNL     C5    5  -0.428  -0.127  -0.005
    1UNL     C6    6  -0.549  -0.039   0.035
    1UNL     C7    7  -0.624   0.003  -0.098
    1UNL     C8    8  -0.642  -0.110   0.128
    1UNL     C9    9  -0.305  -0.066  -0.030
    1UNL    C10   10  -0.197  -0.147  -0.067
    1UNL     O1   11  -0.070  -0.089  -0.096
    1UNL    C11   12  -0.054   0.057  -0.079
    1UNL     O2   13  -0.161   0.126  -0.143
    1UNL    C12   14  -0.132   0.264  -0.151
    1UNL    C13   15  -0.268   0.343  -0.169
    1UNL     O3   16  -0.315   0.385  -0.043
    1UNL    C14   17  -0.374   0.289   0.023
    1UNL     O4   18  -0.403   0.183  -0.024
    1UNL    C15   19  -0.385   0.315   0.176
    1UNL    C16   20  -0.365   0.191   0.266
    1UNL     O5   21  -0.450   0.105   0.257
    1UNL     O6   22  -0.273   0.183   0.357
    1UNL    C17   23  -0.040   0.275  -0.273
    1UNL     O7   24  -0.107   0.297  -0.396
    1UNL    C18   25   0.054   0.148  -0.276
    1UNL     O8   26  -0.012   0.050  -0.355
    1UNL    C19   27   0.085   0.101  -0.135
    1UNL     O9   28   0.176  -0.004  -0.114
    1UNL    C20   29   0.181  -0.059   0.023
    1UNL    O10   30   0.192   0.040   0.129
    1UNL    C21   31   0.322   0.086   0.155
    1UNL    C22   32   0.371   0.177   0.049
    1UNL    O11   33   0.514   0.197   0.077
    1UNL    C23   34   0.587   0.132  -0.019
    1UNL    O12   35   0.531   0.095  -0.119
    1UNL    C24   36   0.733   0.110  -0.012
    1UNL    C25   37   0.787   0.016   0.097
    1UNL    O13   38   0.721  -0.071   0.145
    1UNL    O14   39   0.915   0.046   0.129
    1UNL    C26   40   0.411  -0.042   0.189
    1UNL    O15   41   0.363  -0.112   0.304
    1UNL    C27   42   0.418  -0.139   0.058
    1UNL    O16   43   0.497  -0.255   0.088
    1UNL    C28   44   0.279  -0.182   0.028
    1UNL    O17   45   0.227  -0.266   0.124
    1UNL     H1   46  -0.099  -0.466  -0.086
    1UNL     H2   47  -0.079  -0.366  -0.242
    1UNL     H3   48  -0.008  -0.306  -0.101
    1UNL     H4   49  -0.335  -0.449  -0.040
    1UNL     H5   50  -0.527  -0.316   0.001
    1UNL     H6   51  -0.524   0.056   0.079
    1UNL     H7   52  -0.710   0.068  -0.070
    1UNL     H8   53  -0.665  -0.083  -0.157
    1UNL     H9   54  -0.558   0.070  -0.157
    1UNL    H10   55  -0.681  -0.197   0.081
    1UNL    H11   56  -0.730  -0.044   0.162
    1UNL    H12   57  -0.590  -0.146   0.214
    1UNL    H13   58  -0.294   0.039  -0.050
    1UNL    H14   59  -0.066   0.085   0.023
    1UNL    H15   60  -0.085   0.303  -0.058
    1UNL    H16   61  -0.348   0.271  -0.206
    1UNL    H17   62  -0.269   0.430  -0.229
    1UNL    H18   63  -0.305   0.384   0.187
    1UNL    H19   64  -0.482   0.362   0.191
    1UNL    H20   65  -0.278   0.097   0.395
    1UNL    H21   66   0.020   0.367  -0.255
    1UNL    H22   67  -0.136   0.209  -0.435
    1UNL    H23   68   0.156   0.164  -0.327
    1UNL    H24   69  -0.090   0.016  -0.309
    1UNL    H25   70   0.123   0.187  -0.083
    1UNL    H26   71   0.079  -0.099   0.038
    1UNL    H27   72   0.305   0.141   0.249
    1UNL    H28   73   0.362   0.136  -0.055
    1UNL    H29   74   0.325   0.278   0.059
    1UNL    H30   75   0.769   0.071  -0.104
    1UNL    H31   76   0.781   0.209   0.017
    1UNL    H32   77   0.949  -0.022   0.189
    1UNL    H33   78   0.519  -0.011   0.219
    1UNL    H34   79   0.301  -0.173   0.259
    1UNL    H35   80   0.460  -0.081  -0.026
    1UNL    H36   81   0.584  -0.218   0.109
    1UNL    H37   82   0.275  -0.238  -0.067
    1UNL    H38   83   0.272  -0.359   0.134
   0.00000   0.00000   0.00000   0.00000   0.00000   0.00000   0.00000   0.00000   0.00000
Generated with MDTraj, t= 38.0
 83
    1UNL     C1    1  -0.095  -0.375  -0.093
    1UNL     C2    2  -0.214  -0.296  -0.088
    1UNL     C3    3  -0.327  -0.354  -0.037
    1UNL     C4    4  -0.441  -0.284   0.003
    1UNL     C5    5  -0.437  -0.141  -0.007
    1UNL     C6    6  -0.554  -0.058   0.037
    1UNL     C7    7  -0.624  -0.018  -0.099
    1UNL     C8    8  -0.644  -0.121   0.146
    1UNL     C9    9  -0.322  -0.082  -0.054
    1UNL    C10   10  -0.205  -0.151  -0.086
    1UNL     O1   11  -0.087  -0.094  -0.128
    1UNL    C11   12  -0.077   0.048  -0.095
    1UNL     O2   13  -0.173   0.136  -0.146
    1UNL    C12   14  -0.126   0.265  -0.157
    1UNL    C13   15  -0.240   0.375  -0.145
    1UNL     O3   16  -0.271   0.390  -0.010
    1UNL    C14   17  -0.363   0.292   0.036
    1UNL     O4   18  -0.420   0.217  -0.044
    1UNL    C15   19  -0.394   0.300   0.184
    1UNL    C16   20  -0.344   0.180   0.262
    1UNL     O5   21  -0.350   0.068   0.213
    1UNL     O6   22  -0.294   0.210   0.390
    1UNL    C17   23  -0.030   0.272  -0.277
    1UNL     O7   24  -0.098   0.271  -0.398
    1UNL    C18   25   0.077   0.159  -0.263
    1UNL     O8   26   0.040   0.046  -0.351
    1UNL    C19   27   0.070   0.107  -0.120
    1UNL     O9   28   0.165   0.011  -0.110
    1UNL    C20   29   0.164  -0.044   0.024
    1UNL    O10   30   0.182   0.056   0.128
    1UNL    C21   31   0.317   0.097   0.152
    1UNL    C22   32   0.374   0.185   0.054
    1UNL    O11   33   0.523   0.193   0.075
    1UNL    C23   34   0.587   0.129  -0.026
    1UNL    O12   35   0.524   0.076  -0.117
    1UNL    C24   36   0.731   0.113  -0.014
    1UNL    C25   37   0.766   0.012   0.086
    1UNL    O13   38   0.697  -0.087   0.103
    1UNL    O14   39   0.878   0.021   0.160
    1UNL    C26   40   0.413  -0.023   0.178
    1UNL    O15   41   0.360  -0.081   0.292
    1UNL    C27   42   0.412  -0.120   0.054
    1UNL    O16   43   0.482  -0.238   0.093
    1UNL    C28   44   0.266  -0.161   0.032
    1UNL    O17   45   0.228  -0.257   0.122
    1UNL     H1   46  -0.081  -0.411   0.006
    1UNL     H2   47  -0.085  -0.464  -0.166
    1UNL     H3   48  -0.016  -0.305  -0.123
    1UNL     H4   49  -0.327  -0.467  -0.028
    1UNL     H5   50  -0.535  -0.330   0.039
    1UNL     H6   51  -0.518   0.037   0.071
    1UNL     H7   52  -0.708   0.049  -0.069
    1UNL     H8   53  -0.675  -0.108  -0.141
    1UNL     H9   54  -0.570   0.043  -0.177
    1UNL    H10   55  -0.670  -0.225   0.133
    1UNL    H11   56  -0.738  -0.063   0.172
    1UNL    H12   57  -0.587  -0.131   0.237
    1UNL    H13   58  -0.309   0.025  -0.060
    1UNL    H14   59  -0.089   0.055   0.010
    1UNL    H15   60  -0.060   0.294  -0.069
    1UNL    H16   61  -0.334   0.344  -0.198
    1UNL    H17   62  -0.213   0.472  -0.173
    1UNL    H18   63  -0.344   0.380   0.235
    1UNL    H19   64  -0.502   0.294   0.200
    1UNL    H20   65  -0.282   0.130   0.442
    1UNL    H21   66   0.013   0.375  -0.283
    1UNL    H22   67  -0.089   0.182  -0.445
    1UNL    H23   68   0.185   0.186  -0.292
    1UNL    H24   69  -0.025  -0.012  -0.303
    1UNL    H25   70   0.101   0.183  -0.051
    1UNL    H26   71   0.066  -0.086   0.040
    1UNL    H27   72   0.292   0.137   0.249
    1UNL    H28   73   0.360   0.145  -0.051
    1UNL    H29   74   0.329   0.288   0.053
    1UNL    H30   75   0.771   0.084  -0.110
    1UNL    H31   76   0.770   0.211   0.023
    1UNL    H32   77   0.893  -0.054   0.220
    1UNL    H33   78   0.521   0.009   0.209
    1UNL    H34   79   0.300  -0.148   0.253
    1UNL    H35   80   0.457  -0.069  -0.031
    1UNL    H36   81   0.574  -0.202   0.126
    1UNL    H37   82   0.269  -0.215  -0.067
    1UNL    H38   83   0.289  -0.326   0.129
   0.00000   0.00000   0.00000   0.00000   0.00000   0.00000   0.00000   0.00000   0.00000
Generated with MDTraj, t= 39.0
 83
    1UNL     C1    1  -0.068  -0.346  -0.102
    1UNL     C2    2  -0.192  -0.277  -0.075
    1UNL     C3    3  -0.304  -0.344  -0.033
    1UNL     C4    4  -0.421  -0.279   0.002
    1UNL     C5    5  -0.434  -0.140  -0.017
    1UNL     C6    6  -0.555  -0.059   0.022
    1UNL     C7    7  -0.649  -0.038  -0.098
    1UNL     C8    8  -0.620  -0.109   0.143
    1UNL     C9    9  -0.318  -0.071  -0.049
    1UNL    C10   10  -0.196  -0.137  -0.085
    1UNL     O1   11  -0.080  -0.073  -0.135
    1UNL    C11   12  -0.069   0.056  -0.078
    1UNL     O2   13  -0.167   0.142  -0.133
    1UNL    C12   14  -0.122   0.274  -0.136
    1UNL    C13   15  -0.252   0.370  -0.141
    1UNL     O3   16  -0.292   0.378  -0.003
    1UNL    C14   17  -0.399   0.299   0.028
    1UNL     O4   18  -0.477   0.241  -0.044
    1UNL    C15   19  -0.417   0.288   0.176
    1UNL    C16   20  -0.311   0.194   0.244
    1UNL     O5   21  -0.244   0.116   0.183
    1UNL     O6   22  -0.308   0.189   0.375
    1UNL    C17   23  -0.032   0.285  -0.265
    1UNL     O7   24  -0.121   0.270  -0.376
    1UNL    C18   25   0.074   0.164  -0.260
    1UNL     O8   26   0.044   0.064  -0.352
    1UNL    C19   27   0.081   0.103  -0.115
    1UNL     O9   28   0.176  -0.005  -0.105
    1UNL    C20   29   0.160  -0.064   0.026
    1UNL    O10   30   0.183   0.025   0.136
    1UNL    C21   31   0.310   0.078   0.140
    1UNL    C22   32   0.366   0.150   0.012
    1UNL    O11   33   0.498   0.185   0.043
    1UNL    C23   34   0.583   0.128  -0.041
    1UNL    O12   35   0.555   0.070  -0.150
    1UNL    C24   36   0.731   0.141   0.003
    1UNL    C25   37   0.771   0.026   0.090
    1UNL    O13   38   0.725  -0.086   0.070
    1UNL    O14   39   0.865   0.053   0.184
    1UNL    C26   40   0.399  -0.048   0.181
    1UNL    O15   41   0.360  -0.095   0.300
    1UNL    C27   42   0.393  -0.152   0.066
    1UNL    O16   43   0.467  -0.270   0.113
    1UNL    C28   44   0.242  -0.190   0.051
    1UNL    O17   45   0.199  -0.257   0.167
    1UNL     H1   46   0.003  -0.318  -0.029
    1UNL     H2   47  -0.070  -0.456  -0.088
    1UNL     H3   48  -0.036  -0.326  -0.208
    1UNL     H4   49  -0.298  -0.447  -0.023
    1UNL     H5   50  -0.505  -0.345   0.014
    1UNL     H6   51  -0.520   0.042   0.043
    1UNL     H7   52  -0.727   0.038  -0.079
    1UNL     H8   53  -0.703  -0.129  -0.128
    1UNL     H9   54  -0.600   0.002  -0.191
    1UNL    H10   55  -0.702  -0.181   0.126
    1UNL    H11   56  -0.658  -0.022   0.196
    1UNL    H12   57  -0.543  -0.163   0.198
    1UNL    H13   58  -0.321   0.031  -0.083
    1UNL    H14   59  -0.082   0.052   0.028
    1UNL    H15   60  -0.059   0.298  -0.042
    1UNL    H16   61  -0.336   0.334  -0.205
    1UNL    H17   62  -0.218   0.460  -0.182
    1UNL    H18   63  -0.384   0.380   0.217
    1UNL    H19   64  -0.517   0.264   0.212
    1UNL    H20   65  -0.245   0.115   0.405
    1UNL    H21   66   0.020   0.383  -0.278
    1UNL    H22   67  -0.132   0.180  -0.392
    1UNL    H23   68   0.175   0.215  -0.280
    1UNL    H24   69   0.023  -0.015  -0.301
    1UNL    H25   70   0.119   0.179  -0.048
    1UNL    H26   71   0.058  -0.088   0.044
    1UNL    H27   72   0.301   0.148   0.221
    1UNL    H28   73   0.364   0.091  -0.086
    1UNL    H29   74   0.316   0.243  -0.024
    1UNL    H30   75   0.785   0.120  -0.092
    1UNL    H31   76   0.750   0.237   0.044
    1UNL    H32   77   0.896  -0.026   0.233
    1UNL    H33   78   0.509  -0.020   0.202
    1UNL    H34   79   0.264  -0.120   0.287
    1UNL    H35   80   0.432  -0.113  -0.027
    1UNL    H36   81   0.559  -0.250   0.130
    1UNL    H37   82   0.240  -0.257  -0.041
    1UNL    H38   83   0.271  -0.331   0.189
   0.00000   0.00000   0.00000   0.00000   0.00000   0.00000   0.00000   0.00000   0.00000
Generated with MDTraj, t= 40.0
 83
    1UNL     C1    1  -0.076  -0.358  -0.109
    1UNL     C2    2  -0.198  -0.280  -0.077
    1UNL     C3    3  -0.313  -0.347  -0.039
    1UNL     C4    4  -0.430  -0.276  -0.005
    1UNL     C5    5  -0.423  -0.137  -0.004
    1UNL     C6    6  -0.550  -0.055   0.018
    1UNL     C7    7  -0.657  -0.072  -0.101
    1UNL     C8    8  -0.613  -0.081   0.157
    1UNL     C9    9  -0.306  -0.067  -0.031
    1UNL    C10   10  -0.192  -0.144  -0.063
    1UNL     O1   11  -0.081  -0.078  -0.108
    1UNL    C11   12  -0.074   0.059  -0.065
    1UNL     O2   13  -0.177   0.141  -0.119
    1UNL    C12   14  -0.135   0.278  -0.129
    1UNL    C13   15  -0.257   0.376  -0.147
    1UNL     O3   16  -0.324   0.399  -0.018
    1UNL    C14   17  -0.400   0.289   0.016
    1UNL     O4   18  -0.451   0.214  -0.065
    1UNL    C15   19  -0.412   0.278   0.163
    1UNL    C16   20  -0.302   0.203   0.223
    1UNL     O5   21  -0.203   0.185   0.157
    1UNL     O6   22  -0.318   0.160   0.355
    1UNL    C17   23  -0.032   0.292  -0.244
    1UNL     O7   24  -0.096   0.306  -0.365
    1UNL    C18   25   0.064   0.165  -0.242
    1UNL     O8   26   0.018   0.064  -0.330
    1UNL    C19   27   0.076   0.104  -0.105
    1UNL     O9   28   0.171  -0.006  -0.100
    1UNL    C20   29   0.165  -0.070   0.029
    1UNL    O10   30   0.183   0.022   0.136
    1UNL    C21   31   0.314   0.077   0.152
    1UNL    C22   32   0.369   0.155   0.026
    1UNL    O11   33   0.506   0.189   0.032
    1UNL    C23   34   0.582   0.116  -0.056
    1UNL    O12   35   0.537   0.048  -0.151
    1UNL    C24   36   0.734   0.109  -0.030
    1UNL    C25   37   0.769   0.025   0.093
    1UNL    O13   38   0.725  -0.090   0.105
    1UNL    O14   39   0.845   0.082   0.191
    1UNL    C26   40   0.407  -0.046   0.185
    1UNL    O15   41   0.358  -0.108   0.298
    1UNL    C27   42   0.402  -0.141   0.064
    1UNL    O16   43   0.489  -0.256   0.091
    1UNL    C28   44   0.257  -0.193   0.046
    1UNL    O17   45   0.198  -0.286   0.139
    1UNL     H1   46  -0.026  -0.377  -0.013
    1UNL     H2   47  -0.107  -0.455  -0.136
    1UNL     H3   48  -0.016  -0.312  -0.195
    1UNL     H4   49  -0.321  -0.458  -0.055
    1UNL     H5   50  -0.525  -0.322   0.003
    1UNL     H6   51  -0.530   0.051   0.014
    1UNL     H7   52  -0.753  -0.020  -0.084
    1UNL     H8   53  -0.681  -0.177  -0.121
    1UNL     H9   54  -0.625  -0.025  -0.198
    1UNL    H10   55  -0.606  -0.192   0.181
    1UNL    H11   56  -0.712  -0.048   0.154
    1UNL    H12   57  -0.554  -0.034   0.236
    1UNL    H13   58  -0.309   0.042  -0.040
    1UNL    H14   59  -0.090   0.056   0.043
    1UNL    H15   60  -0.091   0.288  -0.024
    1UNL    H16   61  -0.329   0.333  -0.224
    1UNL    H17   62  -0.227   0.472  -0.179
    1UNL    H18   63  -0.416   0.379   0.197
    1UNL    H19   64  -0.501   0.219   0.183
    1UNL    H20   65  -0.227   0.124   0.380
    1UNL    H21   66   0.025   0.387  -0.230
    1UNL    H22   67  -0.137   0.212  -0.383
    1UNL    H23   68   0.167   0.204  -0.277
    1UNL    H24   69  -0.023  -0.008  -0.273
    1UNL    H25   70   0.104   0.169  -0.022
    1UNL    H26   71   0.068  -0.105   0.051
    1UNL    H27   72   0.307   0.152   0.233
    1UNL    H28   73   0.342   0.118  -0.076
    1UNL    H29   74   0.315   0.251   0.019
    1UNL    H30   75   0.789   0.071  -0.121
    1UNL    H31   76   0.761   0.208  -0.007
    1UNL    H32   77   0.845   0.016   0.265
    1UNL    H33   78   0.514  -0.019   0.210
    1UNL    H34   79   0.293  -0.173   0.269
    1UNL    H35   80   0.422  -0.088  -0.030
    1UNL    H36   81   0.588  -0.230   0.090
    1UNL    H37   82   0.251  -0.249  -0.053
    1UNL    H38   83   0.256  -0.355   0.162
   0.00000   0.00000   0.00000   0.00000   0.00000   0.00000   0.00000   0.00000   0.00000
Generated with MDTraj, t= 41.0
 83
    1UNL     C1    1  -0.094  -0.369  -0.100
    1UNL     C2    2  -0.218  -0.290  -0.077
    1UNL     C3    3  -0.336  -0.351  -0.034
    1UNL     C4    4  -0.451  -0.278   0.003
    1UNL     C5    5  -0.455  -0.142  -0.006
    1UNL     C6    6  -0.582  -0.066   0.018
    1UNL     C7    7  -0.693  -0.114  -0.069
    1UNL     C8    8  -0.628  -0.074   0.169
    1UNL     C9    9  -0.329  -0.082  -0.034
    1UNL    C10   10  -0.208  -0.143  -0.061
    1UNL     O1   11  -0.086  -0.083  -0.085
    1UNL    C11   12  -0.073   0.061  -0.058
    1UNL     O2   13  -0.173   0.137  -0.134
    1UNL    C12   14  -0.145   0.276  -0.153
    1UNL    C13   15  -0.274   0.359  -0.184
    1UNL     O3   16  -0.324   0.391  -0.053
    1UNL    C14   17  -0.383   0.286   0.002
    1UNL     O4   18  -0.429   0.188  -0.052
    1UNL    C15   19  -0.402   0.302   0.156
    1UNL    C16   20  -0.298   0.213   0.224
    1UNL     O5   21  -0.180   0.226   0.204
    1UNL     O6   22  -0.340   0.126   0.321
    1UNL    C17   23  -0.018   0.305  -0.240
    1UNL     O7   24  -0.038   0.347  -0.371
    1UNL    C18   25   0.068   0.174  -0.235
    1UNL     O8   26   0.014   0.072  -0.326
    1UNL    C19   27   0.071   0.115  -0.096
    1UNL     O9   28   0.175   0.018  -0.095
    1UNL    C20   29   0.180  -0.059   0.025
    1UNL    O10   30   0.198   0.021   0.139
    1UNL    C21   31   0.338   0.068   0.160
    1UNL    C22   32   0.386   0.180   0.071
    1UNL    O11   33   0.531   0.177   0.057
    1UNL    C23   34   0.570   0.099  -0.052
    1UNL    O12   35   0.500   0.063  -0.146
    1UNL    C24   36   0.711   0.058  -0.043
    1UNL    C25   37   0.751   0.020   0.102
    1UNL    O13   38   0.716  -0.088   0.144
    1UNL    O14   39   0.823   0.112   0.171
    1UNL    C26   40   0.430  -0.054   0.173
    1UNL    O15   41   0.384  -0.126   0.290
    1UNL    C27   42   0.421  -0.137   0.047
    1UNL    O16   43   0.503  -0.251   0.079
    1UNL    C28   44   0.280  -0.179   0.014
    1UNL    O17   45   0.231  -0.273   0.101
    1UNL     H1   46  -0.107  -0.463  -0.042
    1UNL     H2   47  -0.082  -0.400  -0.198
    1UNL     H3   48   0.003  -0.316  -0.076
    1UNL     H4   49  -0.339  -0.457  -0.035
    1UNL     H5   50  -0.546  -0.333   0.023
    1UNL     H6   51  -0.561   0.037  -0.004
    1UNL     H7   52  -0.768  -0.034  -0.064
    1UNL     H8   53  -0.731  -0.210  -0.034
    1UNL     H9   54  -0.662  -0.117  -0.176
    1UNL    H10   55  -0.653  -0.177   0.205
    1UNL    H11   56  -0.704  -0.007   0.191
    1UNL    H12   57  -0.537  -0.054   0.229
    1UNL    H13   58  -0.327   0.021  -0.059
    1UNL    H14   59  -0.092   0.077   0.051
    1UNL    H15   60  -0.121   0.301  -0.047
    1UNL    H16   61  -0.363   0.310  -0.238
    1UNL    H17   62  -0.245   0.448  -0.237
    1UNL    H18   63  -0.412   0.405   0.185
    1UNL    H19   64  -0.498   0.254   0.163
    1UNL    H20   65  -0.256   0.089   0.353
    1UNL    H21   66   0.031   0.393  -0.193
    1UNL    H22   67  -0.043   0.268  -0.428
    1UNL    H23   68   0.175   0.182  -0.278
    1UNL    H24   69  -0.044   0.020  -0.265
    1UNL    H25   70   0.095   0.188  -0.014
    1UNL    H26   71   0.085  -0.100   0.043
    1UNL    H27   72   0.326   0.112   0.265
    1UNL    H28   73   0.338   0.163  -0.024
    1UNL    H29   74   0.342   0.272   0.100
    1UNL    H30   75   0.726  -0.032  -0.111
    1UNL    H31   76   0.773   0.137  -0.072
    1UNL    H32   77   0.824   0.081   0.265
    1UNL    H33   78   0.534  -0.033   0.204
    1UNL    H34   79   0.291  -0.155   0.274
    1UNL    H35   80   0.462  -0.085  -0.036
    1UNL    H36   81   0.590  -0.221   0.112
    1UNL    H37   82   0.275  -0.224  -0.087
    1UNL    H38   83   0.295  -0.348   0.112
   0.00000   0.00000   0.00000   0.00000   0.00000   0.00000   0.00000   0.00000   0.00000
Generated with MDTraj, t= 42.0
 83
    1UNL     C1    1  -0.070  -0.345  -0.064
    1UNL     C2    2  -0.207  -0.275  -0.068
    1UNL     C3    3  -0.318  -0.343  -0.023
    1UNL     C4    4  -0.436  -0.273  -0.003
    1UNL     C5    5  -0.440  -0.136  -0.021
    1UNL     C6    6  -0.572  -0.060   0.013
    1UNL     C7    7  -0.702  -0.122  -0.039
    1UNL     C8    8  -0.588  -0.056   0.164
    1UNL     C9    9  -0.327  -0.068  -0.049
    1UNL    C10   10  -0.207  -0.140  -0.069
    1UNL     O1   11  -0.083  -0.085  -0.106
    1UNL    C11   12  -0.078   0.048  -0.068
    1UNL     O2   13  -0.177   0.127  -0.140
    1UNL    C12   14  -0.147   0.263  -0.128
    1UNL    C13   15  -0.275   0.335  -0.180
    1UNL     O3   16  -0.334   0.398  -0.073
    1UNL    C14   17  -0.398   0.302   0.009
    1UNL     O4   18  -0.457   0.205  -0.033
    1UNL    C15   19  -0.389   0.330   0.159
    1UNL    C16   20  -0.299   0.223   0.206
    1UNL     O5   21  -0.178   0.239   0.208
    1UNL     O6   22  -0.367   0.115   0.245
    1UNL    C17   23  -0.024   0.305  -0.225
    1UNL     O7   24  -0.068   0.336  -0.352
    1UNL    C18   25   0.071   0.182  -0.233
    1UNL     O8   26   0.037   0.092  -0.337
    1UNL    C19   27   0.066   0.101  -0.092
    1UNL     O9   28   0.153  -0.005  -0.087
    1UNL    C20   29   0.165  -0.078   0.040
    1UNL    O10   30   0.187   0.002   0.160
    1UNL    C21   31   0.323   0.053   0.171
    1UNL    C22   32   0.376   0.149   0.062
    1UNL    O11   33   0.521   0.150   0.063
    1UNL    C23   34   0.576   0.120  -0.056
    1UNL    O12   35   0.527   0.131  -0.164
    1UNL    C24   36   0.720   0.078  -0.043
    1UNL    C25   37   0.772   0.027   0.091
    1UNL    O13   38   0.746  -0.083   0.130
    1UNL    O14   39   0.826   0.120   0.168
    1UNL    C26   40   0.413  -0.066   0.182
    1UNL    O15   41   0.384  -0.148   0.296
    1UNL    C27   42   0.405  -0.149   0.049
    1UNL    O16   43   0.495  -0.263   0.057
    1UNL    C28   44   0.260  -0.200   0.027
    1UNL    O17   45   0.236  -0.300   0.126
    1UNL     H1   46  -0.078  -0.448  -0.108
    1UNL     H2   47  -0.003  -0.292  -0.126
    1UNL     H3   48  -0.026  -0.348   0.036
    1UNL     H4   49  -0.313  -0.452  -0.012
    1UNL     H5   50  -0.525  -0.323   0.008
    1UNL     H6   51  -0.562   0.045  -0.010
    1UNL     H7   52  -0.780  -0.046  -0.027
    1UNL     H8   53  -0.731  -0.221  -0.001
    1UNL     H9   54  -0.689  -0.128  -0.148
    1UNL    H10   55  -0.607  -0.153   0.210
    1UNL    H11   56  -0.674   0.007   0.184
    1UNL    H12   57  -0.506  -0.023   0.229
    1UNL    H13   58  -0.339   0.036  -0.076
    1UNL    H14   59  -0.110   0.057   0.041
    1UNL    H15   60  -0.119   0.287  -0.027
    1UNL    H16   61  -0.350   0.265  -0.234
    1UNL    H17   62  -0.246   0.411  -0.250
    1UNL    H18   63  -0.331   0.422   0.161
    1UNL    H19   64  -0.490   0.343   0.196
    1UNL    H20   65  -0.306   0.053   0.281
    1UNL    H21   66   0.031   0.395  -0.191
    1UNL    H22   67  -0.070   0.256  -0.405
    1UNL    H23   68   0.182   0.213  -0.251
    1UNL    H24   69  -0.000   0.019  -0.284
    1UNL    H25   70   0.114   0.185  -0.030
    1UNL    H26   71   0.068  -0.108   0.061
    1UNL    H27   72   0.324   0.114   0.268
    1UNL    H28   73   0.334   0.112  -0.030
    1UNL    H29   74   0.339   0.245   0.079
    1UNL    H30   75   0.734  -0.010  -0.108
    1UNL    H31   76   0.782   0.157  -0.081
    1UNL    H32   77   0.841   0.076   0.255
    1UNL    H33   78   0.512  -0.026   0.202
    1UNL    H34   79   0.289  -0.166   0.287
    1UNL    H35   80   0.440  -0.077  -0.022
    1UNL    H36   81   0.589  -0.230   0.079
    1UNL    H37   82   0.251  -0.248  -0.069
    1UNL    H38   83   0.328  -0.342   0.154
   0.00000   0.00000   0.00000   0.00000   0.00000   0.00000   0.00000   0.00000   0.00000
Generated with MDTraj, t= 43.0
 83
    1UNL     C1    1  -0.075  -0.385  -0.063
    1UNL     C2    2  -0.195  -0.304  -0.045
    1UNL     C3    3  -0.317  -0.361   0.002
    1UNL     C4    4  -0.431  -0.287   0.016
    1UNL     C5    5  -0.428  -0.150  -0.009
    1UNL     C6    6  -0.554  -0.067  -0.002
    1UNL     C7    7  -0.682  -0.120  -0.070
    1UNL     C8    8  -0.582  -0.056   0.154
    1UNL     C9    9  -0.310  -0.091  -0.040
    1UNL    C10   10  -0.189  -0.162  -0.050
    1UNL     O1   11  -0.086  -0.089  -0.095
    1UNL    C11   12  -0.087   0.049  -0.064
    1UNL     O2   13  -0.177   0.134  -0.136
    1UNL    C12   14  -0.137   0.275  -0.129
    1UNL    C13   15  -0.254   0.369  -0.168
    1UNL     O3   16  -0.326   0.417  -0.051
    1UNL    C14   17  -0.416   0.328  -0.002
    1UNL     O4   18  -0.483   0.242  -0.058
    1UNL    C15   19  -0.401   0.323   0.152
    1UNL    C16   20  -0.291   0.232   0.190
    1UNL     O5   21  -0.173   0.255   0.174
    1UNL     O6   22  -0.323   0.115   0.257
    1UNL    C17   23  -0.014   0.296  -0.225
    1UNL     O7   24  -0.056   0.313  -0.355
    1UNL    C18   25   0.076   0.173  -0.211
    1UNL     O8   26   0.044   0.088  -0.317
    1UNL    C19   27   0.059   0.100  -0.081
    1UNL     O9   28   0.149   0.000  -0.082
    1UNL    C20   29   0.160  -0.074   0.033
    1UNL    O10   30   0.178   0.006   0.150
    1UNL    C21   31   0.315   0.044   0.173
    1UNL    C22   32   0.370   0.145   0.068
    1UNL    O11   33   0.509   0.148   0.074
    1UNL    C23   34   0.569   0.147  -0.053
    1UNL    O12   35   0.513   0.140  -0.156
    1UNL    C24   36   0.720   0.143  -0.037
    1UNL    C25   37   0.759   0.040   0.070
    1UNL    O13   38   0.730  -0.075   0.056
    1UNL    O14   39   0.843   0.080   0.172
    1UNL    C26   40   0.407  -0.077   0.192
    1UNL    O15   41   0.354  -0.152   0.301
    1UNL    C27   42   0.406  -0.154   0.063
    1UNL    O16   43   0.484  -0.270   0.062
    1UNL    C28   44   0.257  -0.191   0.028
    1UNL    O17   45   0.215  -0.297   0.108
    1UNL     H1   46  -0.085  -0.470  -0.135
    1UNL     H2   47  -0.003  -0.320  -0.118
    1UNL     H3   48  -0.029  -0.418   0.025
    1UNL     H4   49  -0.321  -0.469   0.002
    1UNL     H5   50  -0.529  -0.341   0.031
    1UNL     H6   51  -0.524   0.033  -0.038
    1UNL     H7   52  -0.764  -0.049  -0.058
    1UNL     H8   53  -0.711  -0.223  -0.044
    1UNL     H9   54  -0.668  -0.123  -0.178
    1UNL    H10   55  -0.597  -0.147   0.203
    1UNL    H11   56  -0.665   0.019   0.173
    1UNL    H12   57  -0.494  -0.023   0.209
    1UNL    H13   58  -0.306   0.012  -0.073
    1UNL    H14   59  -0.124   0.055   0.045
    1UNL    H15   60  -0.106   0.305  -0.032
    1UNL    H16   61  -0.320   0.305  -0.236
    1UNL    H17   62  -0.227   0.453  -0.230
    1UNL    H18   63  -0.384   0.425   0.187
    1UNL    H19   64  -0.487   0.279   0.196
    1UNL    H20   65  -0.245   0.063   0.285
    1UNL    H21   66   0.035   0.395  -0.212
    1UNL    H22   67  -0.074   0.219  -0.396
    1UNL    H23   68   0.190   0.193  -0.228
    1UNL    H24   69   0.012   0.002  -0.275
    1UNL    H25   70   0.095   0.160   0.011
    1UNL    H26   71   0.064  -0.114   0.042
    1UNL    H27   72   0.314   0.090   0.277
    1UNL    H28   73   0.343   0.102  -0.030
    1UNL    H29   74   0.333   0.242   0.088
    1UNL    H30   75   0.774   0.131  -0.129
    1UNL    H31   76   0.754   0.243   0.003
    1UNL    H32   77   0.846   0.003   0.233
    1UNL    H33   78   0.508  -0.065   0.221
    1UNL    H34   79   0.260  -0.163   0.273
    1UNL    H35   80   0.448  -0.089  -0.016
    1UNL    H36   81   0.571  -0.236   0.072
    1UNL    H37   82   0.252  -0.231  -0.070
    1UNL    H38   83   0.294  -0.340   0.144
   0.00000   0.00000   0.00000   0.00000   0.00000   0.00000   0.00000   0.00000   0.00000
Generated with MDTraj, t= 44.0
 83
    1UNL     C1    1  -0.060  -0.347  -0.055
    1UNL     C2    2  -0.196  -0.285  -0.054
    1UNL     C3    3  -0.308  -0.337   0.000
    1UNL     C4    4  -0.420  -0.267   0.037
    1UNL     C5    5  -0.435  -0.129   0.002
    1UNL     C6    6  -0.573  -0.061   0.006
    1UNL     C7    7  -0.663  -0.124  -0.089
    1UNL     C8    8  -0.636  -0.072   0.152
    1UNL     C9    9  -0.317  -0.068  -0.038
    1UNL    C10   10  -0.197  -0.143  -0.060
    1UNL     O1   11  -0.076  -0.089  -0.104
    1UNL    C11   12  -0.068   0.050  -0.065
    1UNL     O2   13  -0.165   0.132  -0.142
    1UNL    C12   14  -0.127   0.277  -0.141
    1UNL    C13   15  -0.252   0.357  -0.175
    1UNL     O3   16  -0.310   0.398  -0.047
    1UNL    C14   17  -0.402   0.301   0.001
    1UNL     O4   18  -0.465   0.228  -0.073
    1UNL    C15   19  -0.406   0.278   0.150
    1UNL    C16   20  -0.277   0.220   0.200
    1UNL     O5   21  -0.174   0.261   0.152
    1UNL     O6   22  -0.281   0.127   0.301
    1UNL    C17   23  -0.011   0.289  -0.234
    1UNL     O7   24  -0.040   0.304  -0.370
    1UNL    C18   25   0.080   0.158  -0.230
    1UNL     O8   26   0.020   0.069  -0.320
    1UNL    C19   27   0.079   0.101  -0.091
    1UNL     O9   28   0.181   0.008  -0.084
    1UNL    C20   29   0.168  -0.075   0.027
    1UNL    O10   30   0.169  -0.008   0.156
    1UNL    C21   31   0.300   0.044   0.191
    1UNL    C22   32   0.341   0.165   0.097
    1UNL    O11   33   0.475   0.191   0.101
    1UNL    C23   34   0.542   0.161  -0.018
    1UNL    O12   35   0.486   0.142  -0.120
    1UNL    C24   36   0.696   0.150  -0.012
    1UNL    C25   37   0.745   0.021   0.047
    1UNL    O13   38   0.697  -0.082   0.008
    1UNL    O14   39   0.850   0.026   0.137
    1UNL    C26   40   0.399  -0.071   0.195
    1UNL    O15   41   0.369  -0.152   0.310
    1UNL    C27   42   0.408  -0.150   0.060
    1UNL    O16   43   0.496  -0.259   0.062
    1UNL    C28   44   0.263  -0.197   0.024
    1UNL    O17   45   0.215  -0.290   0.111
    1UNL     H1   46  -0.056  -0.454  -0.075
    1UNL     H2   47  -0.009  -0.304  -0.148
    1UNL     H3   48  -0.008  -0.327   0.033
    1UNL     H4   49  -0.302  -0.442   0.019
    1UNL     H5   50  -0.511  -0.314   0.065
    1UNL     H6   51  -0.559   0.045  -0.027
    1UNL     H7   52  -0.749  -0.061  -0.113
    1UNL     H8   53  -0.690  -0.227  -0.057
    1UNL     H9   54  -0.610  -0.133  -0.181
    1UNL    H10   55  -0.682  -0.162   0.179
    1UNL    H11   56  -0.706   0.018   0.166
    1UNL    H12   57  -0.556  -0.064   0.224
    1UNL    H13   58  -0.327   0.029  -0.081
    1UNL    H14   59  -0.095   0.050   0.046
    1UNL    H15   60  -0.099   0.306  -0.040
    1UNL    H16   61  -0.330   0.306  -0.240
    1UNL    H17   62  -0.220   0.445  -0.224
    1UNL    H18   63  -0.418   0.378   0.195
    1UNL    H19   64  -0.489   0.217   0.176
    1UNL    H20   65  -0.195   0.092   0.340
    1UNL    H21   66   0.041   0.381  -0.207
    1UNL    H22   67  -0.038   0.215  -0.404
    1UNL    H23   68   0.186   0.184  -0.273
    1UNL    H24   69  -0.045   0.010  -0.279
    1UNL    H25   70   0.099   0.171  -0.005
    1UNL    H26   71   0.072  -0.117   0.022
    1UNL    H27   72   0.296   0.091   0.292
    1UNL    H28   73   0.320   0.137  -0.010
    1UNL    H29   74   0.299   0.260   0.133
    1UNL    H30   75   0.736   0.175  -0.108
    1UNL    H31   76   0.732   0.238   0.052
    1UNL    H32   77   0.885  -0.062   0.155
    1UNL    H33   78   0.493  -0.026   0.211
    1UNL    H34   79   0.273  -0.165   0.303
    1UNL    H35   80   0.440  -0.084  -0.026
    1UNL    H36   81   0.592  -0.218   0.051
    1UNL    H37   82   0.260  -0.245  -0.069
    1UNL    H38   83   0.285  -0.359   0.116
   0.00000   0.00000   0.00000   0.00000   0.00000   0.00000   0.00000   0.00000   0.00000
Generated with MDTraj, t= 45.0
 83
    1UNL     C1    1  -0.062  -0.350  -0.032
    1UNL     C2    2  -0.192  -0.277  -0.030
    1UNL     C3    3  -0.301  -0.336   0.033
    1UNL     C4    4  -0.424  -0.270   0.037
    1UNL     C5    5  -0.435  -0.139  -0.001
    1UNL     C6    6  -0.568  -0.060   0.006
    1UNL     C7    7  -0.669  -0.089  -0.112
    1UNL     C8    8  -0.639  -0.082   0.141
    1UNL     C9    9  -0.318  -0.070  -0.044
    1UNL    C10   10  -0.196  -0.138  -0.049
    1UNL     O1   11  -0.081  -0.076  -0.101
    1UNL    C11   12  -0.064   0.065  -0.071
    1UNL     O2   13  -0.168   0.143  -0.136
    1UNL    C12   14  -0.127   0.287  -0.156
    1UNL    C13   15  -0.261   0.364  -0.193
    1UNL     O3   16  -0.322   0.401  -0.071
    1UNL    C14   17  -0.366   0.287  -0.009
    1UNL     O4   18  -0.402   0.186  -0.067
    1UNL    C15   19  -0.380   0.279   0.144
    1UNL    C16   20  -0.261   0.208   0.214
    1UNL     O5   21  -0.148   0.217   0.167
    1UNL     O6   22  -0.285   0.128   0.319
    1UNL    C17   23  -0.019   0.298  -0.263
    1UNL     O7   24  -0.076   0.307  -0.395
    1UNL    C18   25   0.079   0.169  -0.253
    1UNL     O8   26   0.034   0.079  -0.349
    1UNL    C19   27   0.079   0.113  -0.101
    1UNL     O9   28   0.170   0.005  -0.078
    1UNL    C20   29   0.151  -0.078   0.039
    1UNL    O10   30   0.156  -0.012   0.162
    1UNL    C21   31   0.285   0.042   0.203
    1UNL    C22   32   0.325   0.174   0.130
    1UNL    O11   33   0.465   0.196   0.130
    1UNL    C23   34   0.530   0.160   0.017
    1UNL    O12   35   0.476   0.126  -0.086
    1UNL    C24   36   0.686   0.160   0.014
    1UNL    C25   37   0.747   0.023   0.029
    1UNL    O13   38   0.698  -0.078  -0.022
    1UNL    O14   39   0.854   0.005   0.105
    1UNL    C26   40   0.394  -0.060   0.192
    1UNL    O15   41   0.395  -0.151   0.301
    1UNL    C27   42   0.399  -0.141   0.060
    1UNL    O16   43   0.486  -0.248   0.054
    1UNL    C28   44   0.253  -0.201   0.035
    1UNL    O17   45   0.220  -0.305   0.119
    1UNL     H1   46  -0.071  -0.449  -0.068
    1UNL     H2   47   0.000  -0.300  -0.114
    1UNL     H3   48  -0.017  -0.346   0.066
    1UNL     H4   49  -0.293  -0.442   0.056
    1UNL     H5   50  -0.512  -0.325   0.063
    1UNL     H6   51  -0.542   0.046  -0.014
    1UNL     H7   52  -0.758  -0.027  -0.109
    1UNL     H8   53  -0.690  -0.196  -0.122
    1UNL     H9   54  -0.621  -0.061  -0.203
    1UNL    H10   55  -0.646  -0.188   0.160
    1UNL    H11   56  -0.743  -0.048   0.119
    1UNL    H12   57  -0.601  -0.044   0.235
    1UNL    H13   58  -0.326   0.032  -0.076
    1UNL    H14   59  -0.075   0.075   0.041
    1UNL    H15   60  -0.091   0.320  -0.055
    1UNL    H16   61  -0.329   0.314  -0.266
    1UNL    H17   62  -0.230   0.455  -0.234
    1UNL    H18   63  -0.382   0.375   0.195
    1UNL    H19   64  -0.472   0.231   0.173
    1UNL    H20   65  -0.196   0.104   0.354
    1UNL    H21   66   0.045   0.383  -0.240
    1UNL    H22   67  -0.065   0.219  -0.432
    1UNL    H23   68   0.190   0.201  -0.281
    1UNL    H24   69  -0.000  -0.002  -0.304
    1UNL    H25   70   0.108   0.198  -0.035
    1UNL    H26   71   0.055  -0.120   0.043
    1UNL    H27   72   0.270   0.064   0.307
    1UNL    H28   73   0.311   0.146   0.019
    1UNL    H29   74   0.264   0.264   0.162
    1UNL    H30   75   0.710   0.191  -0.085
    1UNL    H31   76   0.732   0.242   0.079
    1UNL    H32   77   0.887  -0.083   0.082
    1UNL    H33   78   0.480   0.002   0.205
    1UNL    H34   79   0.309  -0.200   0.300
    1UNL    H35   80   0.419  -0.080  -0.033
    1UNL    H36   81   0.576  -0.207   0.031
    1UNL    H37   82   0.248  -0.239  -0.064
    1UNL    H38   83   0.302  -0.364   0.118
   0.00000   0.00000   0.00000   0.00000   0.00000   0.00000   0.00000   0.00000   0.00000
Generated with MDTraj, t= 46.0
 83
    1UNL     C1    1  -0.068  -0.362  -0.017
    1UNL     C2    2  -0.197  -0.289  -0.023
    1UNL     C3    3  -0.309  -0.350   0.034
    1UNL     C4    4  -0.426  -0.274   0.046
    1UNL     C5    5  -0.430  -0.145   0.003
    1UNL     C6    6  -0.553  -0.060   0.002
    1UNL     C7    7  -0.631  -0.070  -0.123
    1UNL     C8    8  -0.628  -0.080   0.133
    1UNL     C9    9  -0.312  -0.084  -0.050
    1UNL    C10   10  -0.195  -0.153  -0.058
    1UNL     O1   11  -0.080  -0.092  -0.104
    1UNL    C11   12  -0.079   0.046  -0.082
    1UNL     O2   13  -0.178   0.119  -0.157
    1UNL    C12   14  -0.136   0.256  -0.167
    1UNL    C13   15  -0.259   0.351  -0.181
    1UNL     O3   16  -0.297   0.403  -0.056
    1UNL    C14   17  -0.373   0.316   0.015
    1UNL     O4   18  -0.453   0.233  -0.027
    1UNL    C15   19  -0.354   0.321   0.164
    1UNL    C16   20  -0.267   0.204   0.206
    1UNL     O5   21  -0.161   0.204   0.147
    1UNL     O6   22  -0.306   0.119   0.299
    1UNL    C17   23  -0.014   0.275  -0.261
    1UNL     O7   24  -0.055   0.280  -0.402
    1UNL    C18   25   0.085   0.169  -0.233
    1UNL     O8   26   0.067   0.058  -0.329
    1UNL    C19   27   0.063   0.114  -0.088
    1UNL     O9   28   0.162   0.026  -0.058
    1UNL    C20   29   0.138  -0.058   0.049
    1UNL    O10   30   0.158   0.003   0.177
    1UNL    C21   31   0.293   0.050   0.205
    1UNL    C22   32   0.330   0.174   0.118
    1UNL    O11   33   0.469   0.199   0.122
    1UNL    C23   34   0.550   0.160   0.018
    1UNL    O12   35   0.493   0.106  -0.074
    1UNL    C24   36   0.694   0.165   0.018
    1UNL    C25   37   0.762   0.035   0.030
    1UNL    O13   38   0.703  -0.062  -0.021
    1UNL    O14   39   0.876   0.025   0.099
    1UNL    C26   40   0.387  -0.070   0.182
    1UNL    O15   41   0.346  -0.173   0.271
    1UNL    C27   42   0.384  -0.128   0.042
    1UNL    O16   43   0.471  -0.237   0.030
    1UNL    C28   44   0.238  -0.177   0.027
    1UNL    O17   45   0.219  -0.285   0.106
    1UNL     H1   46  -0.087  -0.466  -0.028
    1UNL     H2   47  -0.001  -0.348  -0.103
    1UNL     H3   48  -0.015  -0.350   0.080
    1UNL     H4   49  -0.306  -0.454   0.055
    1UNL     H5   50  -0.517  -0.334   0.065
    1UNL     H6   51  -0.517   0.044  -0.014
    1UNL     H7   52  -0.721  -0.013  -0.107
    1UNL     H8   53  -0.654  -0.173  -0.145
    1UNL     H9   54  -0.588  -0.024  -0.210
    1UNL    H10   55  -0.673  -0.182   0.140
    1UNL    H11   56  -0.706  -0.007   0.139
    1UNL    H12   57  -0.560  -0.084   0.217
    1UNL    H13   58  -0.320   0.015  -0.095
    1UNL    H14   59  -0.110   0.061   0.024
    1UNL    H15   60  -0.094   0.279  -0.062
    1UNL    H16   61  -0.331   0.287  -0.235
    1UNL    H17   62  -0.249   0.445  -0.228
    1UNL    H18   63  -0.323   0.415   0.207
    1UNL    H19   64  -0.447   0.296   0.214
    1UNL    H20   65  -0.227   0.065   0.300
    1UNL    H21   66   0.023   0.378  -0.250
    1UNL    H22   67  -0.049   0.187  -0.448
    1UNL    H23   68   0.200   0.191  -0.254
    1UNL    H24   69  -0.002   0.003  -0.289
    1UNL    H25   70   0.075   0.193  -0.015
    1UNL    H26   71   0.043  -0.104   0.051
    1UNL    H27   72   0.298   0.070   0.308
    1UNL    H28   73   0.300   0.141   0.014
    1UNL    H29   74   0.273   0.269   0.141
    1UNL    H30   75   0.730   0.219  -0.070
    1UNL    H31   76   0.724   0.223   0.108
    1UNL    H32   77   0.896  -0.070   0.100
    1UNL    H33   78   0.485  -0.043   0.218
    1UNL    H34   79   0.249  -0.187   0.265
    1UNL    H35   80   0.411  -0.056  -0.037
    1UNL    H36   81   0.562  -0.199   0.015
    1UNL    H37   82   0.224  -0.208  -0.076
    1UNL    H38   83   0.303  -0.326   0.118
   0.00000   0.00000   0.00000   0.00000   0.00000   0.00000   0.00000   0.00000   0.00000
Generated with MDTraj, t= 47.0
 83
    1UNL     C1    1  -0.066  -0.354  -0.044
    1UNL     C2    2  -0.200  -0.286  -0.035
    1UNL     C3    3  -0.311  -0.343   0.020
    1UNL     C4    4  -0.430  -0.269   0.047
    1UNL     C5    5  -0.434  -0.135   0.005
    1UNL     C6    6  -0.556  -0.048   0.011
    1UNL     C7    7  -0.623  -0.066  -0.121
    1UNL     C8    8  -0.630  -0.085   0.138
    1UNL     C9    9  -0.320  -0.078  -0.045
    1UNL    C10   10  -0.202  -0.149  -0.062
    1UNL     O1   11  -0.082  -0.093  -0.111
    1UNL    C11   12  -0.084   0.041  -0.077
    1UNL     O2   13  -0.178   0.117  -0.168
    1UNL    C12   14  -0.156   0.253  -0.157
    1UNL    C13   15  -0.275   0.341  -0.190
    1UNL     O3   16  -0.313   0.403  -0.066
    1UNL    C14   17  -0.393   0.326   0.017
    1UNL     O4   18  -0.489   0.260  -0.019
    1UNL    C15   19  -0.358   0.335   0.161
    1UNL    C16   20  -0.268   0.218   0.197
    1UNL     O5   21  -0.155   0.200   0.160
    1UNL     O6   22  -0.332   0.126   0.271
    1UNL    C17   23  -0.032   0.280  -0.248
    1UNL     O7   24  -0.083   0.262  -0.384
    1UNL    C18   25   0.073   0.176  -0.224
    1UNL     O8   26   0.065   0.068  -0.319
    1UNL    C19   27   0.062   0.106  -0.084
    1UNL     O9   28   0.158   0.010  -0.080
    1UNL    C20   29   0.152  -0.067   0.034
    1UNL    O10   30   0.170  -0.002   0.165
    1UNL    C21   31   0.304   0.035   0.198
    1UNL    C22   32   0.353   0.152   0.113
    1UNL    O11   33   0.488   0.172   0.124
    1UNL    C23   34   0.548   0.153   0.004
    1UNL    O12   35   0.490   0.138  -0.106
    1UNL    C24   36   0.698   0.162   0.010
    1UNL    C25   37   0.771   0.035   0.058
    1UNL    O13   38   0.725  -0.078   0.059
    1UNL    O14   39   0.898   0.055   0.093
    1UNL    C26   40   0.404  -0.080   0.189
    1UNL    O15   41   0.392  -0.177   0.290
    1UNL    C27   42   0.394  -0.142   0.039
    1UNL    O16   43   0.490  -0.249   0.028
    1UNL    C28   44   0.242  -0.188   0.019
    1UNL    O17   45   0.209  -0.277   0.120
    1UNL     H1   46  -0.074  -0.450   0.007
    1UNL     H2   47  -0.038  -0.381  -0.140
    1UNL     H3   48   0.013  -0.300   0.015
    1UNL     H4   49  -0.314  -0.448   0.049
    1UNL     H5   50  -0.524  -0.307   0.070
    1UNL     H6   51  -0.522   0.060   0.005
    1UNL     H7   52  -0.688   0.018  -0.136
    1UNL     H8   53  -0.681  -0.154  -0.124
    1UNL     H9   54  -0.562  -0.059  -0.211
    1UNL    H10   55  -0.692  -0.178   0.118
    1UNL    H11   56  -0.698  -0.007   0.153
    1UNL    H12   57  -0.563  -0.115   0.219
    1UNL    H13   58  -0.336   0.019  -0.087
    1UNL    H14   59  -0.127   0.052   0.024
    1UNL    H15   60  -0.125   0.278  -0.051
    1UNL    H16   61  -0.351   0.277  -0.245
    1UNL    H17   62  -0.249   0.419  -0.259
    1UNL    H18   63  -0.294   0.421   0.169
    1UNL    H19   64  -0.444   0.352   0.228
    1UNL    H20   65  -0.269   0.052   0.265
    1UNL    H21   66  -0.003   0.387  -0.231
    1UNL    H22   67  -0.109   0.174  -0.390
    1UNL    H23   68   0.181   0.228  -0.229
    1UNL    H24   69   0.031  -0.007  -0.263
    1UNL    H25   70   0.080   0.178  -0.006
    1UNL    H26   71   0.050  -0.103   0.041
    1UNL    H27   72   0.306   0.071   0.297
    1UNL    H28   73   0.328   0.128   0.006
    1UNL    H29   74   0.295   0.247   0.134
    1UNL    H30   75   0.735   0.194  -0.093
    1UNL    H31   76   0.732   0.246   0.069
    1UNL    H32   77   0.929  -0.032   0.128
    1UNL    H33   78   0.501  -0.028   0.203
    1UNL    H34   79   0.317  -0.230   0.257
    1UNL    H35   80   0.431  -0.066  -0.028
    1UNL    H36   81   0.578  -0.205   0.042
    1UNL    H37   82   0.222  -0.224  -0.086
    1UNL    H38   83   0.269  -0.359   0.118
   0.00000   0.00000   0.00000   0.00000   0.00000   0.00000   0.00000   0.00000   0.00000
Generated with MDTraj, t= 48.0
 83
    1UNL     C1    1  -0.087  -0.371  -0.067
    1UNL     C2    2  -0.209  -0.290  -0.042
    1UNL     C3    3  -0.327  -0.346   0.012
    1UNL     C4    4  -0.440  -0.272   0.025
    1UNL     C5    5  -0.437  -0.134   0.001
    1UNL     C6    6  -0.563  -0.050   0.023
    1UNL     C7    7  -0.653  -0.046  -0.104
    1UNL     C8    8  -0.638  -0.087   0.156
    1UNL     C9    9  -0.316  -0.074  -0.032
    1UNL    C10   10  -0.198  -0.150  -0.046
    1UNL     O1   11  -0.085  -0.088  -0.084
    1UNL    C11   12  -0.076   0.053  -0.063
    1UNL     O2   13  -0.179   0.135  -0.126
    1UNL    C12   14  -0.148   0.276  -0.148
    1UNL    C13   15  -0.276   0.352  -0.188
    1UNL     O3   16  -0.332   0.411  -0.074
    1UNL    C14   17  -0.399   0.310  -0.002
    1UNL     O4   18  -0.461   0.211  -0.040
    1UNL    C15   19  -0.386   0.329   0.147
    1UNL    C16   20  -0.293   0.225   0.193
    1UNL     O5   21  -0.178   0.237   0.168
    1UNL     O6   22  -0.353   0.121   0.256
    1UNL    C17   23  -0.030   0.288  -0.248
    1UNL     O7   24  -0.089   0.301  -0.382
    1UNL    C18   25   0.066   0.167  -0.237
    1UNL     O8   26   0.023   0.066  -0.327
    1UNL    C19   27   0.067   0.110  -0.096
    1UNL     O9   28   0.170   0.009  -0.082
    1UNL    C20   29   0.171  -0.077   0.033
    1UNL    O10   30   0.197  -0.011   0.159
    1UNL    C21   31   0.337   0.037   0.183
    1UNL    C22   32   0.373   0.154   0.092
    1UNL    O11   33   0.507   0.188   0.099
    1UNL    C23   34   0.561   0.153  -0.017
    1UNL    O12   35   0.502   0.123  -0.123
    1UNL    C24   36   0.715   0.153  -0.010
    1UNL    C25   37   0.772   0.046   0.077
    1UNL    O13   38   0.702  -0.036   0.128
    1UNL    O14   39   0.908   0.061   0.104
    1UNL    C26   40   0.431  -0.088   0.184
    1UNL    O15   41   0.389  -0.167   0.295
    1UNL    C27   42   0.410  -0.164   0.049
    1UNL    O16   43   0.486  -0.288   0.043
    1UNL    C28   44   0.265  -0.199   0.024
    1UNL    O17   45   0.227  -0.311   0.101
    1UNL     H1   46  -0.105  -0.462  -0.129
    1UNL     H2   47  -0.013  -0.321  -0.118
    1UNL     H3   48  -0.053  -0.407   0.032
    1UNL     H4   49  -0.328  -0.452   0.014
    1UNL     H5   50  -0.534  -0.323   0.056
    1UNL     H6   51  -0.517   0.053   0.035
    1UNL     H7   52  -0.735   0.021  -0.094
    1UNL     H8   53  -0.691  -0.140  -0.131
    1UNL     H9   54  -0.598  -0.001  -0.186
    1UNL    H10   55  -0.664  -0.195   0.155
    1UNL    H11   56  -0.729  -0.036   0.143
    1UNL    H12   57  -0.583  -0.072   0.249
    1UNL    H13   58  -0.297   0.028  -0.047
    1UNL    H14   59  -0.089   0.063   0.044
    1UNL    H15   60  -0.114   0.316  -0.051
    1UNL    H16   61  -0.366   0.297  -0.232
    1UNL    H17   62  -0.249   0.421  -0.268
    1UNL    H18   63  -0.349   0.426   0.172
    1UNL    H19   64  -0.486   0.319   0.190
    1UNL    H20   65  -0.286   0.052   0.285
    1UNL    H21   66   0.029   0.380  -0.220
    1UNL    H22   67  -0.091   0.200  -0.404
    1UNL    H23   68   0.174   0.208  -0.268
    1UNL    H24   69  -0.023  -0.002  -0.273
    1UNL    H25   70   0.082   0.185  -0.020
    1UNL    H26   71   0.071  -0.119   0.043
    1UNL    H27   72   0.339   0.069   0.288
    1UNL    H28   73   0.349   0.132  -0.013
    1UNL    H29   74   0.317   0.244   0.120
    1UNL    H30   75   0.762   0.131  -0.113
    1UNL    H31   76   0.749   0.251   0.011
    1UNL    H32   77   0.934  -0.009   0.170
    1UNL    H33   78   0.544  -0.087   0.204
    1UNL    H34   79   0.320  -0.230   0.263
    1UNL    H35   80   0.458  -0.112  -0.034
    1UNL    H36   81   0.572  -0.265   0.068
    1UNL    H37   82   0.258  -0.221  -0.090
    1UNL    H38   83   0.294  -0.381   0.088
   0.00000   0.00000   0.00000   0.00000   0.00000   0.00000   0.00000   0.00000   0.00000
Generated with MDTraj, t= 49.0
 83
    1UNL     C1    1  -0.090  -0.354  -0.072
    1UNL     C2    2  -0.213  -0.274  -0.052
    1UNL     C3    3  -0.336  -0.337  -0.037
    1UNL     C4    4  -0.450  -0.267  -0.000
    1UNL     C5    5  -0.445  -0.128   0.019
    1UNL     C6    6  -0.578  -0.044   0.046
    1UNL     C7    7  -0.675  -0.042  -0.060
    1UNL     C8    8  -0.648  -0.097   0.171
    1UNL     C9    9  -0.325  -0.064   0.004
    1UNL    C10   10  -0.207  -0.135  -0.038
    1UNL     O1   11  -0.084  -0.073  -0.060
    1UNL    C11   12  -0.071   0.067  -0.030
    1UNL     O2   13  -0.166   0.144  -0.099
    1UNL    C12   14  -0.128   0.281  -0.145
    1UNL    C13   15  -0.253   0.355  -0.183
    1UNL     O3   16  -0.323   0.387  -0.065
    1UNL    C14   17  -0.403   0.284  -0.023
    1UNL     O4   18  -0.439   0.194  -0.096
    1UNL    C15   19  -0.434   0.288   0.125
    1UNL    C16   20  -0.325   0.219   0.203
    1UNL     O5   21  -0.213   0.262   0.209
    1UNL     O6   22  -0.350   0.100   0.278
    1UNL    C17   23  -0.011   0.279  -0.245
    1UNL     O7   24  -0.042   0.321  -0.379
    1UNL    C18   25   0.064   0.149  -0.238
    1UNL     O8   26  -0.002   0.045  -0.313
    1UNL    C19   27   0.077   0.109  -0.089
    1UNL     O9   28   0.183   0.008  -0.086
    1UNL    C20   29   0.178  -0.073   0.026
    1UNL    O10   30   0.191  -0.003   0.144
    1UNL    C21   31   0.316   0.054   0.160
    1UNL    C22   32   0.364   0.145   0.052
    1UNL    O11   33   0.506   0.172   0.065
    1UNL    C23   34   0.585   0.128  -0.039
    1UNL    O12   35   0.539   0.067  -0.135
    1UNL    C24   36   0.728   0.151  -0.015
    1UNL    C25   37   0.779   0.055   0.091
    1UNL    O13   38   0.711  -0.023   0.148
    1UNL    O14   39   0.908   0.065   0.125
    1UNL    C26   40   0.410  -0.071   0.177
    1UNL    O15   41   0.356  -0.143   0.284
    1UNL    C27   42   0.416  -0.151   0.045
    1UNL    O16   43   0.498  -0.267   0.051
    1UNL    C28   44   0.275  -0.202   0.004
    1UNL    O17   45   0.242  -0.321   0.082
    1UNL     H1   46  -0.047  -0.330  -0.173
    1UNL     H2   47  -0.014  -0.321  -0.003
    1UNL     H3   48  -0.111  -0.457  -0.068
    1UNL     H4   49  -0.338  -0.444  -0.058
    1UNL     H5   50  -0.548  -0.308  -0.010
    1UNL     H6   51  -0.543   0.061   0.066
    1UNL     H7   52  -0.764   0.000  -0.021
    1UNL     H8   53  -0.694  -0.142  -0.092
    1UNL     H9   54  -0.639   0.026  -0.135
    1UNL    H10   55  -0.691  -0.194   0.165
    1UNL    H11   56  -0.728  -0.030   0.191
    1UNL    H12   57  -0.578  -0.098   0.256
    1UNL    H13   58  -0.327   0.045  -0.015
    1UNL    H14   59  -0.077   0.077   0.075
    1UNL    H15   60  -0.105   0.320  -0.048
    1UNL    H16   61  -0.321   0.292  -0.251
    1UNL    H17   62  -0.244   0.450  -0.237
    1UNL    H18   63  -0.463   0.388   0.149
    1UNL    H19   64  -0.528   0.235   0.138
    1UNL    H20   65  -0.267   0.060   0.319
    1UNL    H21   66   0.063   0.360  -0.218
    1UNL    H22   67  -0.067   0.242  -0.428
    1UNL    H23   68   0.170   0.164  -0.291
    1UNL    H24   69  -0.044  -0.013  -0.247
    1UNL    H25   70   0.106   0.192  -0.023
    1UNL    H26   71   0.081  -0.124   0.034
    1UNL    H27   72   0.311   0.122   0.250
    1UNL    H28   73   0.349   0.104  -0.046
    1UNL    H29   74   0.319   0.243   0.054
    1UNL    H30   75   0.774   0.143  -0.120
    1UNL    H31   76   0.746   0.252   0.014
    1UNL    H32   77   0.930   0.002   0.198
    1UNL    H33   78   0.514  -0.029   0.203
    1UNL    H34   79   0.293  -0.203   0.242
    1UNL    H35   80   0.456  -0.078  -0.029
    1UNL    H36   81   0.585  -0.234   0.073
    1UNL    H37   82   0.260  -0.221  -0.109
    1UNL    H38   83   0.307  -0.394   0.061
   0.00000   0.00000   0.00000   0.00000   0.00000   0.00000   0.00000   0.00000   0.00000
Generated with MDTraj, t= 50.0
 83
    1UNL     C1    1  -0.097  -0.350  -0.106
    1UNL     C2    2  -0.218  -0.266  -0.071
    1UNL     C3    3  -0.335  -0.328  -0.047
    1UNL     C4    4  -0.446  -0.256  -0.000
    1UNL     C5    5  -0.440  -0.116   0.016
    1UNL     C6    6  -0.562  -0.037   0.059
    1UNL     C7    7  -0.674  -0.036  -0.046
    1UNL     C8    8  -0.623  -0.105   0.190
    1UNL     C9    9  -0.317  -0.057  -0.012
    1UNL    C10   10  -0.205  -0.128  -0.047
    1UNL     O1   11  -0.075  -0.086  -0.079
    1UNL    C11   12  -0.061   0.054  -0.056
    1UNL     O2   13  -0.169   0.134  -0.110
    1UNL    C12   14  -0.140   0.273  -0.122
    1UNL    C13   15  -0.253   0.354  -0.163
    1UNL     O3   16  -0.324   0.393  -0.049
    1UNL    C14   17  -0.414   0.296  -0.021
    1UNL     O4   18  -0.447   0.201  -0.088
    1UNL    C15   19  -0.455   0.298   0.127
    1UNL    C16   20  -0.359   0.220   0.208
    1UNL     O5   21  -0.250   0.270   0.229
    1UNL     O6   22  -0.399   0.099   0.254
    1UNL    C17   23  -0.025   0.285  -0.231
    1UNL     O7   24  -0.090   0.311  -0.359
    1UNL    C18   25   0.063   0.156  -0.250
    1UNL     O8   26   0.006   0.054  -0.333
    1UNL    C19   27   0.082   0.092  -0.107
    1UNL     O9   28   0.172  -0.022  -0.117
    1UNL    C20   29   0.183  -0.088   0.011
    1UNL    O10   30   0.187   0.003   0.117
    1UNL    C21   31   0.317   0.059   0.135
    1UNL    C22   32   0.367   0.161   0.037
    1UNL    O11   33   0.512   0.185   0.050
    1UNL    C23   34   0.586   0.110  -0.033
    1UNL    O12   35   0.539   0.045  -0.118
    1UNL    C24   36   0.734   0.121  -0.010
    1UNL    C25   37   0.786   0.036   0.099
    1UNL    O13   38   0.737  -0.069   0.128
    1UNL    O14   39   0.910   0.080   0.150
    1UNL    C26   40   0.424  -0.055   0.166
    1UNL    O15   41   0.373  -0.118   0.289
    1UNL    C27   42   0.436  -0.152   0.053
    1UNL    O16   43   0.520  -0.258   0.094
    1UNL    C28   44   0.296  -0.205   0.019
    1UNL    O17   45   0.264  -0.295   0.124
    1UNL     H1   46  -0.000  -0.303  -0.076
    1UNL     H2   47  -0.093  -0.439  -0.039
    1UNL     H3   48  -0.094  -0.372  -0.206
    1UNL     H4   49  -0.347  -0.430  -0.071
    1UNL     H5   50  -0.538  -0.307   0.023
    1UNL     H6   51  -0.517   0.061   0.087
    1UNL     H7   52  -0.750   0.030  -0.013
    1UNL     H8   53  -0.718  -0.134  -0.056
    1UNL     H9   54  -0.638   0.006  -0.137
    1UNL    H10   55  -0.676  -0.191   0.172
    1UNL    H11   56  -0.689  -0.030   0.228
    1UNL    H12   57  -0.563  -0.135   0.278
    1UNL    H13   58  -0.317   0.050  -0.023
    1UNL    H14   59  -0.074   0.066   0.048
    1UNL    H15   60  -0.114   0.302  -0.022
    1UNL    H16   61  -0.319   0.302  -0.239
    1UNL    H17   62  -0.218   0.443  -0.217
    1UNL    H18   63  -0.430   0.401   0.155
    1UNL    H19   64  -0.560   0.297   0.155
    1UNL    H20   65  -0.325   0.057   0.301
    1UNL    H21   66   0.045   0.371  -0.216
    1UNL    H22   67  -0.123   0.227  -0.396
    1UNL    H23   68   0.177   0.174  -0.283
    1UNL    H24   69  -0.054   0.010  -0.267
    1UNL    H25   70   0.127   0.176  -0.052
    1UNL    H26   71   0.093  -0.145   0.033
    1UNL    H27   72   0.299   0.112   0.237
    1UNL    H28   73   0.347   0.125  -0.061
    1UNL    H29   74   0.312   0.252   0.048
    1UNL    H30   75   0.800   0.099  -0.098
    1UNL    H31   76   0.758   0.226   0.015
    1UNL    H32   77   0.947   0.012   0.211
    1UNL    H33   78   0.531  -0.027   0.198
    1UNL    H34   79   0.315  -0.192   0.259
    1UNL    H35   80   0.483  -0.116  -0.041
    1UNL    H36   81   0.608  -0.210   0.119
    1UNL    H37   82   0.313  -0.254  -0.082
    1UNL    H38   83   0.338  -0.359   0.123
   0.00000   0.00000   0.00000   0.00000   0.00000   0.00000   0.00000   0.00000   0.00000
Generated with MDTraj, t= 51.0
 83
    1UNL     C1    1  -0.121  -0.388  -0.156
    1UNL     C2    2  -0.226  -0.303  -0.100
    1UNL     C3    3  -0.346  -0.361  -0.050
    1UNL     C4    4  -0.445  -0.276   0.003
    1UNL     C5    5  -0.428  -0.142   0.007
    1UNL     C6    6  -0.543  -0.047   0.055
    1UNL     C7    7  -0.640  -0.027  -0.061
    1UNL     C8    8  -0.602  -0.102   0.187
    1UNL     C9    9  -0.304  -0.086  -0.034
    1UNL    C10   10  -0.200  -0.164  -0.080
    1UNL     O1   11  -0.087  -0.097  -0.118
    1UNL    C11   12  -0.069   0.039  -0.072
    1UNL     O2   13  -0.166   0.124  -0.127
    1UNL    C12   14  -0.126   0.263  -0.144
    1UNL    C13   15  -0.251   0.349  -0.159
    1UNL     O3   16  -0.307   0.373  -0.038
    1UNL    C14   17  -0.423   0.315   0.006
    1UNL     O4   18  -0.493   0.240  -0.060
    1UNL    C15   19  -0.441   0.345   0.150
    1UNL    C16   20  -0.384   0.238   0.243
    1UNL     O5   21  -0.270   0.258   0.280
    1UNL     O6   22  -0.449   0.128   0.280
    1UNL    C17   23  -0.011   0.271  -0.253
    1UNL     O7   24  -0.077   0.293  -0.373
    1UNL    C18   25   0.061   0.142  -0.254
    1UNL     O8   26  -0.010   0.048  -0.341
    1UNL    C19   27   0.072   0.088  -0.109
    1UNL     O9   28   0.169  -0.012  -0.102
    1UNL    C20   29   0.178  -0.056   0.034
    1UNL    O10   30   0.201   0.039   0.138
    1UNL    C21   31   0.334   0.084   0.158
    1UNL    C22   32   0.389   0.163   0.037
    1UNL    O11   33   0.524   0.192   0.042
    1UNL    C23   34   0.604   0.117  -0.048
    1UNL    O12   35   0.565   0.054  -0.140
    1UNL    C24   36   0.750   0.121  -0.016
    1UNL    C25   37   0.793   0.021   0.090
    1UNL    O13   38   0.757  -0.095   0.080
    1UNL    O14   39   0.863   0.059   0.193
    1UNL    C26   40   0.433  -0.037   0.185
    1UNL    O15   41   0.405  -0.103   0.308
    1UNL    C27   42   0.431  -0.135   0.065
    1UNL    O16   43   0.510  -0.250   0.093
    1UNL    C28   44   0.284  -0.175   0.037
    1UNL    O17   45   0.237  -0.266   0.134
    1UNL     H1   46  -0.046  -0.413  -0.082
    1UNL     H2   47  -0.161  -0.492  -0.173
    1UNL     H3   48  -0.079  -0.344  -0.243
    1UNL     H4   49  -0.368  -0.470  -0.053
    1UNL     H5   50  -0.538  -0.323   0.033
    1UNL     H6   51  -0.495   0.048   0.090
    1UNL     H7   52  -0.700   0.060  -0.048
    1UNL     H8   53  -0.707  -0.109  -0.084
    1UNL     H9   54  -0.575   0.000  -0.139
    1UNL    H10   55  -0.643  -0.197   0.177
    1UNL    H11   56  -0.671  -0.026   0.225
    1UNL    H12   57  -0.529  -0.119   0.265
    1UNL    H13   58  -0.295   0.019  -0.037
    1UNL    H14   59  -0.088   0.043   0.032
    1UNL    H15   60  -0.077   0.302  -0.055
    1UNL    H16   61  -0.328   0.295  -0.217
    1UNL    H17   62  -0.236   0.441  -0.212
    1UNL    H18   63  -0.410   0.444   0.185
    1UNL    H19   64  -0.549   0.339   0.148
    1UNL    H20   65  -0.397   0.095   0.352
    1UNL    H21   66   0.051   0.361  -0.239
    1UNL    H22   67  -0.116   0.205  -0.406
    1UNL    H23   68   0.168   0.143  -0.308
    1UNL    H24   69  -0.030  -0.029  -0.287
    1UNL    H25   70   0.100   0.179  -0.050
    1UNL    H26   71   0.085  -0.104   0.056
    1UNL    H27   72   0.325   0.159   0.246
    1UNL    H28   73   0.361   0.116  -0.055
    1UNL    H29   74   0.344   0.261   0.037
    1UNL    H30   75   0.806   0.102  -0.106
    1UNL    H31   76   0.784   0.223   0.019
    1UNL    H32   77   0.888  -0.022   0.241
    1UNL    H33   78   0.540  -0.003   0.197
    1UNL    H34   79   0.327  -0.156   0.276
    1UNL    H35   80   0.466  -0.089  -0.030
    1UNL    H36   81   0.600  -0.222   0.099
    1UNL    H37   82   0.287  -0.219  -0.063
    1UNL    H38   83   0.303  -0.337   0.140
   0.00000   0.00000   0.00000   0.00000   0.00000   0.00000   0.00000   0.00000   0.00000
Generated with MDTraj, t= 52.0
 83
    1UNL     C1    1  -0.110  -0.380  -0.172
    1UNL     C2    2  -0.220  -0.305  -0.107
    1UNL     C3    3  -0.334  -0.370  -0.075
    1UNL     C4    4  -0.443  -0.297  -0.022
    1UNL     C5    5  -0.433  -0.159  -0.000
    1UNL     C6    6  -0.542  -0.061   0.047
    1UNL     C7    7  -0.626  -0.014  -0.069
    1UNL     C8    8  -0.629  -0.124   0.161
    1UNL     C9    9  -0.314  -0.096  -0.029
    1UNL    C10   10  -0.206  -0.168  -0.081
    1UNL     O1   11  -0.080  -0.115  -0.117
    1UNL    C11   12  -0.074   0.026  -0.086
    1UNL     O2   13  -0.169   0.109  -0.150
    1UNL    C12   14  -0.132   0.245  -0.149
    1UNL    C13   15  -0.258   0.335  -0.153
    1UNL     O3   16  -0.293   0.385  -0.028
    1UNL    C14   17  -0.399   0.324   0.033
    1UNL     O4   18  -0.463   0.236  -0.015
    1UNL    C15   19  -0.454   0.366   0.168
    1UNL    C16   20  -0.406   0.267   0.276
    1UNL     O5   21  -0.286   0.265   0.301
    1UNL     O6   22  -0.492   0.181   0.339
    1UNL    C17   23  -0.022   0.264  -0.266
    1UNL     O7   24  -0.096   0.252  -0.384
    1UNL    C18   25   0.080   0.149  -0.251
    1UNL     O8   26   0.051   0.049  -0.351
    1UNL    C19   27   0.076   0.078  -0.114
    1UNL     O9   28   0.178  -0.017  -0.101
    1UNL    C20   29   0.183  -0.054   0.034
    1UNL    O10   30   0.214   0.047   0.131
    1UNL    C21   31   0.343   0.098   0.144
    1UNL    C22   32   0.400   0.190   0.027
    1UNL    O11   33   0.539   0.208   0.036
    1UNL    C23   34   0.612   0.122  -0.047
    1UNL    O12   35   0.564   0.066  -0.142
    1UNL    C24   36   0.759   0.102  -0.023
    1UNL    C25   37   0.778   0.001   0.085
    1UNL    O13   38   0.763  -0.121   0.056
    1UNL    O14   39   0.809   0.047   0.210
    1UNL    C26   40   0.436  -0.028   0.174
    1UNL    O15   41   0.393  -0.081   0.296
    1UNL    C27   42   0.425  -0.135   0.060
    1UNL    O16   43   0.512  -0.245   0.071
    1UNL    C28   44   0.278  -0.178   0.052
    1UNL    O17   45   0.235  -0.244   0.178
    1UNL     H1   46  -0.098  -0.478  -0.137
    1UNL     H2   47  -0.143  -0.406  -0.275
    1UNL     H3   48  -0.017  -0.319  -0.173
    1UNL     H4   49  -0.331  -0.477  -0.086
    1UNL     H5   50  -0.542  -0.338  -0.022
    1UNL     H6   51  -0.494   0.023   0.103
    1UNL     H7   52  -0.720   0.019  -0.028
    1UNL     H8   53  -0.651  -0.089  -0.144
    1UNL     H9   54  -0.575   0.071  -0.106
    1UNL    H10   55  -0.670  -0.219   0.132
    1UNL    H11   56  -0.699  -0.052   0.205
    1UNL    H12   57  -0.566  -0.154   0.239
    1UNL    H13   58  -0.311   0.015  -0.030
    1UNL    H14   59  -0.100   0.026   0.019
    1UNL    H15   60  -0.082   0.260  -0.051
    1UNL    H16   61  -0.332   0.278  -0.210
    1UNL    H17   62  -0.240   0.422  -0.213
    1UNL    H18   63  -0.403   0.460   0.190
    1UNL    H19   64  -0.557   0.389   0.185
    1UNL    H20   65  -0.442   0.148   0.417
    1UNL    H21   66   0.021   0.362  -0.249
    1UNL    H22   67  -0.118   0.160  -0.385
    1UNL    H23   68   0.192   0.178  -0.283
    1UNL    H24   69  -0.008  -0.016  -0.302
    1UNL    H25   70   0.097   0.150  -0.031
    1UNL    H26   71   0.086  -0.092   0.055
    1UNL    H27   72   0.332   0.168   0.233
    1UNL    H28   73   0.375   0.138  -0.065
    1UNL    H29   74   0.356   0.293   0.025
    1UNL    H30   75   0.802   0.060  -0.110
    1UNL    H31   76   0.816   0.201  -0.003
    1UNL    H32   77   0.803  -0.025   0.273
    1UNL    H33   78   0.539   0.005   0.191
    1UNL    H34   79   0.296  -0.080   0.282
    1UNL    H35   80   0.440  -0.081  -0.039
    1UNL    H36   81   0.608  -0.211   0.063
    1UNL    H37   82   0.267  -0.247  -0.028
    1UNL    H38   83   0.316  -0.277   0.227
   0.00000   0.00000   0.00000   0.00000   0.00000   0.00000   0.00000   0.00000   0.00000
Generated with MDTraj, t= 53.0
 83
    1UNL     C1    1  -0.087  -0.366  -0.160
    1UNL     C2    2  -0.209  -0.291  -0.123
    1UNL     C3    3  -0.329  -0.354  -0.099
    1UNL     C4    4  -0.439  -0.290  -0.048
    1UNL     C5    5  -0.427  -0.152  -0.011
    1UNL     C6    6  -0.539  -0.076   0.048
    1UNL     C7    7  -0.620   0.001  -0.069
    1UNL     C8    8  -0.637  -0.168   0.130
    1UNL     C9    9  -0.311  -0.088  -0.042
    1UNL    C10   10  -0.192  -0.151  -0.090
    1UNL     O1   11  -0.071  -0.090  -0.118
    1UNL    C11   12  -0.058   0.041  -0.055
    1UNL     O2   13  -0.168   0.120  -0.098
    1UNL    C12   14  -0.136   0.254  -0.140
    1UNL    C13   15  -0.261   0.328  -0.170
    1UNL     O3   16  -0.302   0.387  -0.051
    1UNL    C14   17  -0.381   0.307   0.033
    1UNL     O4   18  -0.405   0.193  -0.001
    1UNL    C15   19  -0.426   0.366   0.165
    1UNL    C16   20  -0.417   0.273   0.284
    1UNL     O5   21  -0.305   0.246   0.323
    1UNL     O6   22  -0.524   0.255   0.363
    1UNL    C17   23  -0.043   0.253  -0.265
    1UNL     O7   24  -0.129   0.225  -0.384
    1UNL    C18   25   0.069   0.145  -0.249
    1UNL     O8   26   0.044   0.041  -0.340
    1UNL    C19   27   0.083   0.096  -0.097
    1UNL     O9   28   0.190   0.004  -0.079
    1UNL    C20   29   0.181  -0.063   0.043
    1UNL    O10   30   0.209   0.035   0.142
    1UNL    C21   31   0.336   0.096   0.135
    1UNL    C22   32   0.383   0.176   0.013
    1UNL    O11   33   0.524   0.201   0.014
    1UNL    C23   34   0.598   0.114  -0.060
    1UNL    O12   35   0.559   0.038  -0.148
    1UNL    C24   36   0.747   0.096  -0.027
    1UNL    C25   37   0.763  -0.009   0.080
    1UNL    O13   38   0.770  -0.129   0.057
    1UNL    O14   39   0.765   0.037   0.208
    1UNL    C26   40   0.445  -0.012   0.158
    1UNL    O15   41   0.433  -0.054   0.291
    1UNL    C27   42   0.427  -0.133   0.058
    1UNL    O16   43   0.505  -0.238   0.105
    1UNL    C28   44   0.283  -0.176   0.049
    1UNL    O17   45   0.253  -0.262   0.157
    1UNL     H1   46  -0.104  -0.464  -0.188
    1UNL     H2   47  -0.042  -0.320  -0.248
    1UNL     H3   48  -0.013  -0.352  -0.076
    1UNL     H4   49  -0.352  -0.453  -0.137
    1UNL     H5   50  -0.530  -0.344  -0.028
    1UNL     H6   51  -0.490  -0.001   0.115
    1UNL     H7   52  -0.683   0.077  -0.024
    1UNL     H8   53  -0.688  -0.061  -0.126
    1UNL     H9   54  -0.551   0.055  -0.129
    1UNL    H10   55  -0.687  -0.244   0.068
    1UNL    H11   56  -0.708  -0.110   0.187
    1UNL    H12   57  -0.599  -0.233   0.202
    1UNL    H13   58  -0.309   0.015  -0.030
    1UNL    H14   59  -0.061   0.028   0.055
    1UNL    H15   60  -0.090   0.301  -0.047
    1UNL    H16   61  -0.337   0.262  -0.208
    1UNL    H17   62  -0.245   0.397  -0.253
    1UNL    H18   63  -0.378   0.462   0.188
    1UNL    H19   64  -0.529   0.392   0.152
    1UNL    H20   65  -0.489   0.193   0.435
    1UNL    H21   66  -0.007   0.356  -0.265
    1UNL    H22   67  -0.064   0.176  -0.448
    1UNL    H23   68   0.168   0.200  -0.286
    1UNL    H24   69  -0.013  -0.018  -0.289
    1UNL    H25   70   0.102   0.179  -0.026
    1UNL    H26   71   0.086  -0.107   0.057
    1UNL    H27   72   0.331   0.161   0.224
    1UNL    H28   73   0.371   0.114  -0.078
    1UNL    H29   74   0.321   0.273   0.004
    1UNL    H30   75   0.801   0.078  -0.117
    1UNL    H31   76   0.786   0.193   0.019
    1UNL    H32   77   0.753  -0.033   0.273
    1UNL    H33   78   0.549   0.019   0.166
    1UNL    H34   79   0.337  -0.076   0.302
    1UNL    H35   80   0.461  -0.115  -0.049
    1UNL    H36   81   0.599  -0.206   0.104
    1UNL    H37   82   0.283  -0.240  -0.035
    1UNL    H38   83   0.331  -0.308   0.182
   0.00000   0.00000   0.00000   0.00000   0.00000   0.00000   0.00000   0.00000   0.00000
Generated with MDTraj, t= 54.0
 83
    1UNL     C1    1  -0.073  -0.348  -0.169
    1UNL     C2    2  -0.191  -0.274  -0.121
    1UNL     C3    3  -0.312  -0.342  -0.117
    1UNL     C4    4  -0.420  -0.279  -0.062
    1UNL     C5    5  -0.417  -0.146  -0.023
    1UNL     C6    6  -0.544  -0.082   0.041
    1UNL     C7    7  -0.606   0.002  -0.065
    1UNL     C8    8  -0.639  -0.180   0.093
    1UNL     C9    9  -0.297  -0.081  -0.020
    1UNL    C10   10  -0.182  -0.147  -0.068
    1UNL     O1   11  -0.058  -0.093  -0.060
    1UNL    C11   12  -0.054   0.050  -0.041
    1UNL     O2   13  -0.164   0.122  -0.093
    1UNL    C12   14  -0.137   0.255  -0.144
    1UNL    C13   15  -0.262   0.334  -0.166
    1UNL     O3   16  -0.314   0.396  -0.052
    1UNL    C14   17  -0.381   0.316   0.034
    1UNL     O4   18  -0.400   0.198   0.021
    1UNL    C15   19  -0.420   0.383   0.165
    1UNL    C16   20  -0.430   0.289   0.282
    1UNL     O5   21  -0.335   0.217   0.304
    1UNL     O6   22  -0.542   0.282   0.367
    1UNL    C17   23  -0.047   0.249  -0.264
    1UNL     O7   24  -0.126   0.216  -0.381
    1UNL    C18   25   0.058   0.138  -0.256
    1UNL     O8   26   0.029   0.016  -0.315
    1UNL    C19   27   0.079   0.102  -0.103
    1UNL     O9   28   0.176  -0.001  -0.091
    1UNL    C20   29   0.192  -0.061   0.041
    1UNL    O10   30   0.223   0.037   0.145
    1UNL    C21   31   0.351   0.091   0.145
    1UNL    C22   32   0.388   0.165   0.015
    1UNL    O11   33   0.524   0.197   0.001
    1UNL    C23   34   0.589   0.103  -0.078
    1UNL    O12   35   0.533   0.018  -0.152
    1UNL    C24   36   0.735   0.094  -0.044
    1UNL    C25   37   0.762   0.002   0.071
    1UNL    O13   38   0.767  -0.119   0.057
    1UNL    O14   39   0.751   0.064   0.189
    1UNL    C26   40   0.445  -0.026   0.177
    1UNL    O15   41   0.402  -0.085   0.298
    1UNL    C27   42   0.443  -0.140   0.064
    1UNL    O16   43   0.519  -0.248   0.114
    1UNL    C28   44   0.296  -0.180   0.040
    1UNL    O17   45   0.264  -0.261   0.149
    1UNL     H1   46  -0.087  -0.380  -0.273
    1UNL     H2   47   0.014  -0.290  -0.169
    1UNL     H3   48  -0.051  -0.436  -0.104
    1UNL     H4   49  -0.310  -0.444  -0.154
    1UNL     H5   50  -0.513  -0.336  -0.057
    1UNL     H6   51  -0.519  -0.011   0.123
    1UNL     H7   52  -0.687   0.068  -0.038
    1UNL     H8   53  -0.645  -0.056  -0.146
    1UNL     H9   54  -0.527   0.067  -0.102
    1UNL    H10   55  -0.685  -0.253   0.021
    1UNL    H11   56  -0.704  -0.139   0.165
    1UNL    H12   57  -0.583  -0.250   0.150
    1UNL    H13   58  -0.286   0.026   0.003
    1UNL    H14   59  -0.051   0.073   0.070
    1UNL    H15   60  -0.079   0.308  -0.062
    1UNL    H16   61  -0.339   0.279  -0.219
    1UNL    H17   62  -0.231   0.409  -0.240
    1UNL    H18   63  -0.354   0.467   0.189
    1UNL    H19   64  -0.517   0.426   0.148
    1UNL    H20   65  -0.525   0.212   0.438
    1UNL    H21   66  -0.001   0.346  -0.292
    1UNL    H22   67  -0.172   0.140  -0.353
    1UNL    H23   68   0.160   0.171  -0.306
    1UNL    H24   69  -0.003  -0.037  -0.236
    1UNL    H25   70   0.112   0.182  -0.035
    1UNL    H26   71   0.096  -0.095   0.062
    1UNL    H27   72   0.355   0.164   0.223
    1UNL    H28   73   0.356   0.115  -0.081
    1UNL    H29   74   0.349   0.275   0.013
    1UNL    H30   75   0.783   0.060  -0.137
    1UNL    H31   76   0.761   0.197  -0.024
    1UNL    H32   77   0.759  -0.006   0.258
    1UNL    H33   78   0.542   0.020   0.192
    1UNL    H34   79   0.312  -0.116   0.275
    1UNL    H35   80   0.484  -0.108  -0.037
    1UNL    H36   81   0.613  -0.224   0.093
    1UNL    H37   82   0.285  -0.231  -0.053
    1UNL    H38   83   0.333  -0.337   0.161
   0.00000   0.00000   0.00000   0.00000   0.00000   0.00000   0.00000   0.00000   0.00000
Generated with MDTraj, t= 55.0
 83
    1UNL     C1    1  -0.058  -0.336  -0.158
    1UNL     C2    2  -0.188  -0.278  -0.116
    1UNL     C3    3  -0.315  -0.335  -0.133
    1UNL     C4    4  -0.429  -0.270  -0.082
    1UNL     C5    5  -0.420  -0.156  -0.004
    1UNL     C6    6  -0.542  -0.079   0.039
    1UNL     C7    7  -0.602   0.002  -0.085
    1UNL     C8    8  -0.658  -0.166   0.097
    1UNL     C9    9  -0.293  -0.102   0.011
    1UNL    C10   10  -0.181  -0.161  -0.042
    1UNL     O1   11  -0.056  -0.095  -0.037
    1UNL    C11   12  -0.052   0.046  -0.027
    1UNL     O2   13  -0.162   0.113  -0.090
    1UNL    C12   14  -0.124   0.245  -0.139
    1UNL    C13   15  -0.250   0.331  -0.154
    1UNL     O3   16  -0.286   0.382  -0.027
    1UNL    C14   17  -0.397   0.318   0.034
    1UNL     O4   18  -0.477   0.240  -0.011
    1UNL    C15   19  -0.417   0.383   0.168
    1UNL    C16   20  -0.439   0.285   0.284
    1UNL     O5   21  -0.361   0.193   0.292
    1UNL     O6   22  -0.555   0.293   0.358
    1UNL    C17   23  -0.027   0.238  -0.264
    1UNL     O7   24  -0.111   0.226  -0.383
    1UNL    C18   25   0.060   0.113  -0.255
    1UNL     O8   26   0.005   0.006  -0.323
    1UNL    C19   27   0.084   0.081  -0.099
    1UNL     O9   28   0.178  -0.021  -0.095
    1UNL    C20   29   0.196  -0.060   0.038
    1UNL    O10   30   0.216   0.047   0.137
    1UNL    C21   31   0.355   0.089   0.158
    1UNL    C22   32   0.400   0.170   0.034
    1UNL    O11   33   0.542   0.157   0.028
    1UNL    C23   34   0.588   0.106  -0.082
    1UNL    O12   35   0.530   0.076  -0.187
    1UNL    C24   36   0.734   0.071  -0.071
    1UNL    C25   37   0.777   0.012   0.064
    1UNL    O13   38   0.781  -0.108   0.077
    1UNL    O14   39   0.815   0.099   0.163
    1UNL    C26   40   0.443  -0.036   0.185
    1UNL    O15   41   0.390  -0.093   0.304
    1UNL    C27   42   0.433  -0.132   0.067
    1UNL    O16   43   0.514  -0.239   0.079
    1UNL    C28   44   0.292  -0.180   0.045
    1UNL    O17   45   0.248  -0.255   0.156
    1UNL     H1   46  -0.010  -0.266  -0.234
    1UNL     H2   47   0.007  -0.348  -0.079
    1UNL     H3   48  -0.074  -0.431  -0.209
    1UNL     H4   49  -0.322  -0.430  -0.182
    1UNL     H5   50  -0.525  -0.298  -0.118
    1UNL     H6   51  -0.524   0.002   0.111
    1UNL     H7   52  -0.697   0.050  -0.064
    1UNL     H8   53  -0.634  -0.064  -0.161
    1UNL     H9   54  -0.539   0.081  -0.129
    1UNL    H10   55  -0.686  -0.249   0.028
    1UNL    H11   56  -0.734  -0.101   0.127
    1UNL    H12   57  -0.632  -0.222   0.183
    1UNL    H13   58  -0.274  -0.011   0.063
    1UNL    H14   59  -0.051   0.087   0.080
    1UNL    H15   60  -0.076   0.298  -0.053
    1UNL    H16   61  -0.322   0.261  -0.199
    1UNL    H17   62  -0.252   0.423  -0.220
    1UNL    H18   63  -0.317   0.425   0.184
    1UNL    H19   64  -0.482   0.468   0.176
    1UNL    H20   65  -0.552   0.238   0.441
    1UNL    H21   66   0.031   0.332  -0.287
    1UNL    H22   67  -0.077   0.147  -0.436
    1UNL    H23   68   0.166   0.124  -0.308
    1UNL    H24   69  -0.065  -0.023  -0.264
    1UNL    H25   70   0.127   0.170  -0.049
    1UNL    H26   71   0.101  -0.094   0.066
    1UNL    H27   72   0.338   0.139   0.250
    1UNL    H28   73   0.364   0.122  -0.061
    1UNL    H29   74   0.353   0.277   0.033
    1UNL    H30   75   0.767  -0.000  -0.151
    1UNL    H31   76   0.783   0.161  -0.090
    1UNL    H32   77   0.816   0.037   0.241
    1UNL    H33   78   0.546  -0.013   0.204
    1UNL    H34   79   0.315  -0.153   0.277
    1UNL    H35   80   0.473  -0.079  -0.025
    1UNL    H36   81   0.610  -0.207   0.095
    1UNL    H37   82   0.280  -0.241  -0.047
    1UNL    H38   83   0.309  -0.322   0.179
   0.00000   0.00000   0.00000   0.00000   0.00000   0.00000   0.00000   0.00000   0.00000
Generated with MDTraj, t= 56.0
 83
    1UNL     C1    1  -0.081  -0.351  -0.156
    1UNL     C2    2  -0.202  -0.285  -0.102
    1UNL     C3    3  -0.329  -0.336  -0.114
    1UNL     C4    4  -0.443  -0.261  -0.080
    1UNL     C5    5  -0.434  -0.133  -0.018
    1UNL     C6    6  -0.555  -0.057   0.026
    1UNL     C7    7  -0.636   0.004  -0.091
    1UNL     C8    8  -0.652  -0.140   0.105
    1UNL     C9    9  -0.303  -0.083  -0.002
    1UNL    C10   10  -0.191  -0.151  -0.045
    1UNL     O1   11  -0.059  -0.106  -0.050
    1UNL    C11   12  -0.052   0.032  -0.030
    1UNL     O2   13  -0.162   0.116  -0.091
    1UNL    C12   14  -0.122   0.252  -0.132
    1UNL    C13   15  -0.250   0.335  -0.141
    1UNL     O3   16  -0.286   0.378  -0.020
    1UNL    C14   17  -0.408   0.344   0.024
    1UNL     O4   18  -0.491   0.289  -0.042
    1UNL    C15   19  -0.430   0.383   0.173
    1UNL    C16   20  -0.466   0.265   0.261
    1UNL     O5   21  -0.406   0.163   0.232
    1UNL     O6   22  -0.559   0.269   0.355
    1UNL    C17   23  -0.035   0.242  -0.257
    1UNL     O7   24  -0.115   0.230  -0.370
    1UNL    C18   25   0.048   0.110  -0.246
    1UNL     O8   26  -0.030   0.002  -0.296
    1UNL    C19   27   0.088   0.070  -0.094
    1UNL     O9   28   0.191  -0.027  -0.088
    1UNL    C20   29   0.205  -0.076   0.044
    1UNL    O10   30   0.223   0.023   0.148
    1UNL    C21   31   0.361   0.073   0.155
    1UNL    C22   32   0.406   0.156   0.035
    1UNL    O11   33   0.550   0.161   0.038
    1UNL    C23   34   0.600   0.117  -0.085
    1UNL    O12   35   0.535   0.112  -0.190
    1UNL    C24   36   0.749   0.089  -0.079
    1UNL    C25   37   0.803   0.028   0.050
    1UNL    O13   38   0.756  -0.074   0.089
    1UNL    O14   39   0.896   0.101   0.113
    1UNL    C26   40   0.462  -0.040   0.187
    1UNL    O15   41   0.427  -0.098   0.315
    1UNL    C27   42   0.457  -0.149   0.079
    1UNL    O16   43   0.528  -0.269   0.112
    1UNL    C28   44   0.305  -0.190   0.059
    1UNL    O17   45   0.271  -0.278   0.167
    1UNL     H1   46   0.012  -0.321  -0.097
    1UNL     H2   47  -0.088  -0.457  -0.157
    1UNL     H3   48  -0.070  -0.308  -0.254
    1UNL     H4   49  -0.356  -0.429  -0.165
    1UNL     H5   50  -0.541  -0.307  -0.096
    1UNL     H6   51  -0.527   0.027   0.088
    1UNL     H7   52  -0.725   0.047  -0.046
    1UNL     H8   53  -0.681  -0.072  -0.153
    1UNL     H9   54  -0.587   0.084  -0.149
    1UNL    H10   55  -0.692  -0.219   0.044
    1UNL    H11   56  -0.721  -0.074   0.150
    1UNL    H12   57  -0.602  -0.199   0.182
    1UNL    H13   58  -0.296   0.019   0.029
    1UNL    H14   59  -0.056   0.052   0.083
    1UNL    H15   60  -0.068   0.307  -0.054
    1UNL    H16   61  -0.333   0.277  -0.185
    1UNL    H17   62  -0.242   0.423  -0.214
    1UNL    H18   63  -0.351   0.431   0.230
    1UNL    H19   64  -0.509   0.458   0.174
    1UNL    H20   65  -0.567   0.175   0.383
    1UNL    H21   66   0.029   0.337  -0.263
    1UNL    H22   67  -0.109   0.131  -0.388
    1UNL    H23   68   0.145   0.106  -0.314
    1UNL    H24   69  -0.078  -0.039  -0.219
    1UNL    H25   70   0.128   0.159  -0.044
    1UNL    H26   71   0.111  -0.108   0.075
    1UNL    H27   72   0.366   0.132   0.243
    1UNL    H28   73   0.365   0.129  -0.063
    1UNL    H29   74   0.389   0.269   0.041
    1UNL    H30   75   0.757   0.012  -0.161
    1UNL    H31   76   0.811   0.168  -0.108
    1UNL    H32   77   0.911   0.063   0.203
    1UNL    H33   78   0.560   0.003   0.196
    1UNL    H34   79   0.341  -0.143   0.303
    1UNL    H35   80   0.511  -0.111  -0.011
    1UNL    H36   81   0.621  -0.239   0.109
    1UNL    H37   82   0.302  -0.256  -0.034
    1UNL    H38   83   0.338  -0.354   0.167
   0.00000   0.00000   0.00000   0.00000   0.00000   0.00000   0.00000   0.00000   0.00000
Generated with MDTraj, t= 57.0
 83
    1UNL     C1    1  -0.123  -0.375  -0.122
    1UNL     C2    2  -0.234  -0.278  -0.105
    1UNL     C3    3  -0.366  -0.321  -0.118
    1UNL     C4    4  -0.473  -0.242  -0.070
    1UNL     C5    5  -0.447  -0.113  -0.022
    1UNL     C6    6  -0.571  -0.034   0.024
    1UNL     C7    7  -0.646   0.016  -0.100
    1UNL     C8    8  -0.661  -0.099   0.121
    1UNL     C9    9  -0.315  -0.068  -0.014
    1UNL    C10   10  -0.209  -0.151  -0.050
    1UNL     O1   11  -0.069  -0.109  -0.046
    1UNL    C11   12  -0.036   0.032  -0.013
    1UNL     O2   13  -0.144   0.121  -0.048
    1UNL    C12   14  -0.104   0.253  -0.100
    1UNL    C13   15  -0.223   0.339  -0.115
    1UNL     O3   16  -0.286   0.374   0.000
    1UNL    C14   17  -0.420   0.337   0.007
    1UNL     O4   18  -0.470   0.292  -0.092
    1UNL    C15   19  -0.488   0.357   0.139
    1UNL    C16   20  -0.500   0.238   0.227
    1UNL     O5   21  -0.431   0.142   0.195
    1UNL     O6   22  -0.559   0.234   0.352
    1UNL    C17   23  -0.025   0.235  -0.236
    1UNL     O7   24  -0.125   0.210  -0.332
    1UNL    C18   25   0.073   0.111  -0.220
    1UNL     O8   26   0.025   0.000  -0.293
    1UNL    C19   27   0.099   0.068  -0.079
    1UNL     O9   28   0.191  -0.038  -0.074
    1UNL    C20   29   0.211  -0.088   0.053
    1UNL    O10   30   0.223   0.016   0.152
    1UNL    C21   31   0.357   0.077   0.158
    1UNL    C22   32   0.403   0.151   0.027
    1UNL    O11   33   0.547   0.173   0.033
    1UNL    C23   34   0.606   0.130  -0.085
    1UNL    O12   35   0.552   0.083  -0.179
    1UNL    C24   36   0.760   0.143  -0.085
    1UNL    C25   37   0.817   0.054   0.028
    1UNL    O13   38   0.749  -0.027   0.087
    1UNL    O14   39   0.947   0.070   0.063
    1UNL    C26   40   0.454  -0.041   0.183
    1UNL    O15   41   0.421  -0.098   0.312
    1UNL    C27   42   0.458  -0.151   0.074
    1UNL    O16   43   0.546  -0.263   0.090
    1UNL    C28   44   0.317  -0.200   0.062
    1UNL    O17   45   0.289  -0.290   0.165
    1UNL     H1   46  -0.121  -0.465  -0.056
    1UNL     H2   47  -0.128  -0.419  -0.226
    1UNL     H3   48  -0.032  -0.323  -0.115
    1UNL     H4   49  -0.375  -0.421  -0.156
    1UNL     H5   50  -0.567  -0.292  -0.066
    1UNL     H6   51  -0.535   0.057   0.078
    1UNL     H7   52  -0.718   0.092  -0.071
    1UNL     H8   53  -0.710  -0.062  -0.143
    1UNL     H9   54  -0.574   0.059  -0.172
    1UNL    H10   55  -0.704  -0.182   0.077
    1UNL    H11   56  -0.729  -0.027   0.165
    1UNL    H12   57  -0.601  -0.148   0.199
    1UNL    H13   58  -0.290   0.038   0.009
    1UNL    H14   59  -0.028   0.018   0.100
    1UNL    H15   60  -0.042   0.294  -0.021
    1UNL    H16   61  -0.291   0.293  -0.189
    1UNL    H17   62  -0.193   0.437  -0.168
    1UNL    H18   63  -0.437   0.441   0.182
    1UNL    H19   64  -0.591   0.390   0.120
    1UNL    H20   65  -0.545   0.143   0.375
    1UNL    H21   66   0.029   0.333  -0.253
    1UNL    H22   67  -0.091   0.136  -0.377
    1UNL    H23   68   0.172   0.129  -0.283
    1UNL    H24   69  -0.024  -0.057  -0.230
    1UNL    H25   70   0.143   0.156  -0.030
    1UNL    H26   71   0.118  -0.132   0.080
    1UNL    H27   72   0.363   0.140   0.246
    1UNL    H28   73   0.379   0.110  -0.067
    1UNL    H29   74   0.346   0.247   0.024
    1UNL    H30   75   0.808   0.098  -0.172
    1UNL    H31   76   0.791   0.246  -0.085
    1UNL    H32   77   0.967   0.006   0.135
    1UNL    H33   78   0.554   0.003   0.184
    1UNL    H34   79   0.354  -0.166   0.297
    1UNL    H35   80   0.483  -0.104  -0.020
    1UNL    H36   81   0.639  -0.234   0.072
    1UNL    H37   82   0.298  -0.260  -0.034
    1UNL    H38   83   0.363  -0.351   0.174
   0.00000   0.00000   0.00000   0.00000   0.00000   0.00000   0.00000   0.00000   0.00000
Generated with MDTraj, t= 58.0
 83
    1UNL     C1    1  -0.137  -0.364  -0.119
    1UNL     C2    2  -0.248  -0.274  -0.095
    1UNL     C3    3  -0.380  -0.320  -0.097
    1UNL     C4    4  -0.486  -0.238  -0.069
    1UNL     C5    5  -0.459  -0.103  -0.036
    1UNL     C6    6  -0.569  -0.002  -0.014
    1UNL     C7    7  -0.653   0.017  -0.148
    1UNL     C8    8  -0.652  -0.037   0.113
    1UNL     C9    9  -0.329  -0.056  -0.029
    1UNL    C10   10  -0.220  -0.145  -0.051
    1UNL     O1   11  -0.090  -0.112  -0.044
    1UNL    C11   12  -0.056   0.021  -0.004
    1UNL     O2   13  -0.154   0.118  -0.038
    1UNL    C12   14  -0.100   0.244  -0.084
    1UNL    C13   15  -0.207   0.339  -0.100
    1UNL     O3   16  -0.293   0.351   0.013
    1UNL    C14   17  -0.417   0.303  -0.010
    1UNL     O4   18  -0.458   0.262  -0.117
    1UNL    C15   19  -0.520   0.317   0.107
    1UNL    C16   20  -0.494   0.230   0.233
    1UNL     O5   21  -0.399   0.155   0.233
    1UNL     O6   22  -0.572   0.236   0.342
    1UNL    C17   23  -0.022   0.231  -0.215
    1UNL     O7   24  -0.114   0.218  -0.322
    1UNL    C18   25   0.082   0.114  -0.200
    1UNL     O8   26   0.049   0.010  -0.292
    1UNL    C19   27   0.090   0.062  -0.052
    1UNL     O9   28   0.178  -0.048  -0.051
    1UNL    C20   29   0.211  -0.099   0.070
    1UNL    O10   30   0.232   0.008   0.159
    1UNL    C21   31   0.363   0.063   0.157
    1UNL    C22   32   0.366   0.152   0.029
    1UNL    O11   33   0.503   0.208   0.017
    1UNL    C23   34   0.594   0.132  -0.063
    1UNL    O12   35   0.562   0.045  -0.135
    1UNL    C24   36   0.740   0.161  -0.048
    1UNL    C25   37   0.823   0.054   0.015
    1UNL    O13   38   0.766  -0.033   0.077
    1UNL    O14   39   0.957   0.051  -0.009
    1UNL    C26   40   0.472  -0.039   0.168
    1UNL    O15   41   0.456  -0.095   0.300
    1UNL    C27   42   0.469  -0.141   0.059
    1UNL    O16   43   0.564  -0.242   0.081
    1UNL    C28   44   0.325  -0.202   0.064
    1UNL    O17   45   0.324  -0.291   0.168
    1UNL     H1   46  -0.166  -0.454  -0.173
    1UNL     H2   47  -0.071  -0.307  -0.195
    1UNL     H3   48  -0.086  -0.378  -0.027
    1UNL     H4   49  -0.400  -0.427  -0.107
    1UNL     H5   50  -0.588  -0.275  -0.080
    1UNL     H6   51  -0.522   0.096   0.011
    1UNL     H7   52  -0.745   0.069  -0.117
    1UNL     H8   53  -0.699  -0.078  -0.186
    1UNL     H9   54  -0.604   0.074  -0.228
    1UNL    H10   55  -0.684  -0.135   0.109
    1UNL    H11   56  -0.733   0.035   0.125
    1UNL    H12   57  -0.594  -0.040   0.204
    1UNL    H13   58  -0.307   0.041  -0.008
    1UNL    H14   59  -0.056  -0.000   0.106
    1UNL    H15   60  -0.029   0.266  -0.007
    1UNL    H16   61  -0.267   0.306  -0.183
    1UNL    H17   62  -0.158   0.435  -0.138
    1UNL    H18   63  -0.509   0.418   0.139
    1UNL    H19   64  -0.622   0.315   0.064
    1UNL    H20   65  -0.547   0.178   0.414
    1UNL    H21   66   0.027   0.332  -0.225
    1UNL    H22   67  -0.102   0.118  -0.352
    1UNL    H23   68   0.187   0.149  -0.238
    1UNL    H24   69   0.021  -0.064  -0.236
    1UNL    H25   70   0.133   0.139   0.014
    1UNL    H26   71   0.119  -0.144   0.106
    1UNL    H27   72   0.368   0.123   0.252
    1UNL    H28   73   0.338   0.096  -0.053
    1UNL    H29   74   0.294   0.235   0.033
    1UNL    H30   75   0.778   0.181  -0.144
    1UNL    H31   76   0.753   0.252   0.014
    1UNL    H32   77   0.993  -0.032   0.030
    1UNL    H33   78   0.573   0.008   0.163
    1UNL    H34   79   0.372  -0.146   0.306
    1UNL    H35   80   0.492  -0.100  -0.038
    1UNL    H36   81   0.650  -0.189   0.070
    1UNL    H37   82   0.303  -0.257  -0.034
    1UNL    H38   83   0.396  -0.360   0.147
   0.00000   0.00000   0.00000   0.00000   0.00000   0.00000   0.00000   0.00000   0.00000
Generated with MDTraj, t= 59.0
 83
    1UNL     C1    1  -0.149  -0.378  -0.115
    1UNL     C2    2  -0.262  -0.286  -0.084
    1UNL     C3    3  -0.386  -0.329  -0.086
    1UNL     C4    4  -0.491  -0.241  -0.078
    1UNL     C5    5  -0.471  -0.106  -0.038
    1UNL     C6    6  -0.578  -0.003  -0.034
    1UNL     C7    7  -0.652   0.002  -0.164
    1UNL     C8    8  -0.653  -0.027   0.093
    1UNL     C9    9  -0.340  -0.069  -0.022
    1UNL    C10   10  -0.232  -0.153  -0.053
    1UNL     O1   11  -0.092  -0.121  -0.056
    1UNL    C11   12  -0.061   0.003  -0.007
    1UNL     O2   13  -0.155   0.108  -0.044
    1UNL    C12   14  -0.100   0.242  -0.071
    1UNL    C13   15  -0.207   0.339  -0.111
    1UNL     O3   16  -0.291   0.369  -0.000
    1UNL    C14   17  -0.417   0.315  -0.008
    1UNL     O4   18  -0.458   0.247  -0.101
    1UNL    C15   19  -0.507   0.336   0.113
    1UNL    C16   20  -0.497   0.235   0.220
    1UNL     O5   21  -0.414   0.149   0.202
    1UNL     O6   22  -0.573   0.229   0.338
    1UNL    C17   23  -0.001   0.238  -0.191
    1UNL     O7   24  -0.072   0.263  -0.320
    1UNL    C18   25   0.072   0.105  -0.198
    1UNL     O8   26   0.023   0.015  -0.287
    1UNL    C19   27   0.086   0.054  -0.050
    1UNL     O9   28   0.182  -0.054  -0.049
    1UNL    C20   29   0.211  -0.102   0.080
    1UNL    O10   30   0.235   0.001   0.179
    1UNL    C21   31   0.366   0.063   0.168
    1UNL    C22   32   0.372   0.163   0.040
    1UNL    O11   33   0.507   0.220   0.042
    1UNL    C23   34   0.589   0.149  -0.039
    1UNL    O12   35   0.551   0.065  -0.115
    1UNL    C24   36   0.735   0.178  -0.020
    1UNL    C25   37   0.821   0.052  -0.014
    1UNL    O13   38   0.793  -0.040   0.064
    1UNL    O14   39   0.935   0.039  -0.087
    1UNL    C26   40   0.478  -0.033   0.163
    1UNL    O15   41   0.498  -0.088   0.290
    1UNL    C27   42   0.465  -0.153   0.059
    1UNL    O16   43   0.569  -0.253   0.068
    1UNL    C28   44   0.322  -0.215   0.085
    1UNL    O17   45   0.324  -0.278   0.208
    1UNL     H1   46  -0.117  -0.371  -0.217
    1UNL     H2   47  -0.055  -0.337  -0.065
    1UNL     H3   48  -0.164  -0.481  -0.078
    1UNL     H4   49  -0.404  -0.432  -0.100
    1UNL     H5   50  -0.594  -0.270  -0.092
    1UNL     H6   51  -0.527   0.096  -0.014
    1UNL     H7   52  -0.711   0.096  -0.170
    1UNL     H8   53  -0.732  -0.078  -0.176
    1UNL     H9   54  -0.578   0.007  -0.245
    1UNL    H10   55  -0.698  -0.124   0.110
    1UNL    H11   56  -0.727   0.051   0.106
    1UNL    H12   57  -0.587  -0.021   0.176
    1UNL    H13   58  -0.318   0.040  -0.011
    1UNL    H14   59  -0.076  -0.003   0.100
    1UNL    H15   60  -0.052   0.275   0.021
    1UNL    H16   61  -0.259   0.308  -0.197
    1UNL    H17   62  -0.165   0.442  -0.130
    1UNL    H18   63  -0.494   0.434   0.154
    1UNL    H19   64  -0.611   0.325   0.077
    1UNL    H20   65  -0.543   0.156   0.397
    1UNL    H21   66   0.061   0.328  -0.180
    1UNL    H22   67  -0.054   0.194  -0.381
    1UNL    H23   68   0.182   0.122  -0.234
    1UNL    H24   69  -0.046  -0.034  -0.234
    1UNL    H25   70   0.114   0.138   0.018
    1UNL    H26   71   0.116  -0.147   0.116
    1UNL    H27   72   0.379   0.122   0.266
    1UNL    H28   73   0.349   0.104  -0.042
    1UNL    H29   74   0.304   0.245   0.046
    1UNL    H30   75   0.764   0.244  -0.094
    1UNL    H31   76   0.748   0.226   0.081
    1UNL    H32   77   0.974  -0.047  -0.066
    1UNL    H33   78   0.573   0.021   0.141
    1UNL    H34   79   0.446  -0.169   0.295
    1UNL    H35   80   0.477  -0.112  -0.039
    1UNL    H36   81   0.656  -0.211   0.089
    1UNL    H37   82   0.306  -0.291   0.007
    1UNL    H38   83   0.400  -0.341   0.204
   0.00000   0.00000   0.00000   0.00000   0.00000   0.00000   0.00000   0.00000   0.00000
Generated with MDTraj, t= 60.0
 83
    1UNL     C1    1  -0.141  -0.396  -0.096
    1UNL     C2    2  -0.252  -0.299  -0.082
    1UNL     C3    3  -0.385  -0.344  -0.094
    1UNL     C4    4  -0.492  -0.256  -0.075
    1UNL     C5    5  -0.467  -0.124  -0.045
    1UNL     C6    6  -0.585  -0.027  -0.026
    1UNL     C7    7  -0.663  -0.011  -0.160
    1UNL     C8    8  -0.679  -0.084   0.087
    1UNL     C9    9  -0.335  -0.076  -0.027
    1UNL    C10   10  -0.226  -0.163  -0.045
    1UNL     O1   11  -0.094  -0.120  -0.041
    1UNL    C11   12  -0.069   0.011  -0.010
    1UNL     O2   13  -0.147   0.111  -0.084
    1UNL    C12   14  -0.092   0.239  -0.088
    1UNL    C13   15  -0.194   0.349  -0.122
    1UNL     O3   16  -0.271   0.368  -0.002
    1UNL    C14   17  -0.407   0.341  -0.003
    1UNL     O4   18  -0.466   0.307  -0.104
    1UNL    C15   19  -0.468   0.364   0.136
    1UNL    C16   20  -0.501   0.229   0.212
    1UNL     O5   21  -0.466   0.127   0.158
    1UNL     O6   22  -0.565   0.226   0.329
    1UNL    C17   23   0.033   0.240  -0.180
    1UNL     O7   24  -0.014   0.289  -0.314
    1UNL    C18   25   0.094   0.095  -0.184
    1UNL     O8   26   0.005   0.022  -0.264
    1UNL    C19   27   0.090   0.047  -0.040
    1UNL     O9   28   0.178  -0.067  -0.032
    1UNL    C20   29   0.202  -0.099   0.098
    1UNL    O10   30   0.232   0.016   0.183
    1UNL    C21   31   0.368   0.067   0.176
    1UNL    C22   32   0.392   0.179   0.062
    1UNL    O11   33   0.527   0.214   0.074
    1UNL    C23   34   0.597   0.161  -0.033
    1UNL    O12   35   0.539   0.103  -0.125
    1UNL    C24   36   0.753   0.183  -0.030
    1UNL    C25   37   0.810   0.046  -0.054
    1UNL    O13   38   0.773  -0.037   0.027
    1UNL    O14   39   0.904   0.023  -0.149
    1UNL    C26   40   0.479  -0.035   0.181
    1UNL    O15   41   0.474  -0.091   0.315
    1UNL    C27   42   0.453  -0.148   0.071
    1UNL    O16   43   0.559  -0.237   0.066
    1UNL    C28   44   0.314  -0.215   0.098
    1UNL    O17   45   0.312  -0.287   0.215
    1UNL     H1   46  -0.049  -0.345  -0.108
    1UNL     H2   47  -0.118  -0.453  -0.004
    1UNL     H3   48  -0.157  -0.478  -0.176
    1UNL     H4   49  -0.403  -0.451  -0.112
    1UNL     H5   50  -0.592  -0.292  -0.064
    1UNL     H6   51  -0.545   0.072   0.008
    1UNL     H7   52  -0.748   0.062  -0.159
    1UNL     H8   53  -0.712  -0.105  -0.197
    1UNL     H9   54  -0.587   0.026  -0.230
    1UNL    H10   55  -0.744  -0.173   0.070
    1UNL    H11   56  -0.748  -0.005   0.110
    1UNL    H12   57  -0.632  -0.108   0.177
    1UNL    H13   58  -0.315   0.029  -0.015
    1UNL    H14   59  -0.088   0.035   0.090
    1UNL    H15   60  -0.050   0.261   0.012
    1UNL    H16   61  -0.261   0.329  -0.200
    1UNL    H17   62  -0.141   0.444  -0.145
    1UNL    H18   63  -0.401   0.431   0.187
    1UNL    H19   64  -0.563   0.416   0.129
    1UNL    H20   65  -0.563   0.131   0.362
    1UNL    H21   66   0.104   0.311  -0.143
    1UNL    H22   67  -0.038   0.207  -0.367
    1UNL    H23   68   0.200   0.078  -0.228
    1UNL    H24   69  -0.054  -0.030  -0.206
    1UNL    H25   70   0.118   0.124   0.035
    1UNL    H26   71   0.105  -0.144   0.138
    1UNL    H27   72   0.382   0.122   0.275
    1UNL    H28   73   0.376   0.161  -0.039
    1UNL    H29   74   0.324   0.258   0.095
    1UNL    H30   75   0.785   0.250  -0.105
    1UNL    H31   76   0.778   0.220   0.072
    1UNL    H32   77   0.935  -0.067  -0.142
    1UNL    H33   78   0.581   0.014   0.171
    1UNL    H34   79   0.415  -0.171   0.299
    1UNL    H35   80   0.443  -0.092  -0.021
    1UNL    H36   81   0.646  -0.195   0.067
    1UNL    H37   82   0.278  -0.280   0.021
    1UNL    H38   83   0.362  -0.368   0.206
   0.00000   0.00000   0.00000   0.00000   0.00000   0.00000   0.00000   0.00000   0.00000
Generated with MDTraj, t= 61.0
 83
    1UNL     C1    1  -0.107  -0.380  -0.077
    1UNL     C2    2  -0.233  -0.297  -0.073
    1UNL     C3    3  -0.358  -0.352  -0.095
    1UNL     C4    4  -0.470  -0.272  -0.080
    1UNL     C5    5  -0.460  -0.136  -0.058
    1UNL     C6    6  -0.584  -0.044  -0.052
    1UNL     C7    7  -0.667  -0.039  -0.179
    1UNL     C8    8  -0.687  -0.095   0.059
    1UNL     C9    9  -0.330  -0.078  -0.046
    1UNL    C10   10  -0.216  -0.161  -0.052
    1UNL     O1   11  -0.081  -0.117  -0.055
    1UNL    C11   12  -0.062   0.018  -0.013
    1UNL     O2   13  -0.140   0.122  -0.080
    1UNL    C12   14  -0.089   0.248  -0.078
    1UNL    C13   15  -0.194   0.358  -0.109
    1UNL     O3   16  -0.272   0.384   0.007
    1UNL    C14   17  -0.400   0.347   0.004
    1UNL     O4   18  -0.460   0.307  -0.092
    1UNL    C15   19  -0.469   0.376   0.136
    1UNL    C16   20  -0.496   0.249   0.219
    1UNL     O5   21  -0.461   0.146   0.163
    1UNL     O6   22  -0.561   0.247   0.342
    1UNL    C17   23   0.024   0.251  -0.181
    1UNL     O7   24  -0.033   0.277  -0.307
    1UNL    C18   25   0.106   0.112  -0.177
    1UNL     O8   26   0.060   0.016  -0.266
    1UNL    C19   27   0.092   0.056  -0.040
    1UNL     O9   28   0.182  -0.052  -0.033
    1UNL    C20   29   0.210  -0.095   0.096
    1UNL    O10   30   0.225   0.012   0.195
    1UNL    C21   31   0.355   0.070   0.206
    1UNL    C22   32   0.376   0.165   0.081
    1UNL    O11   33   0.516   0.185   0.073
    1UNL    C23   34   0.568   0.152  -0.049
    1UNL    O12   35   0.494   0.124  -0.145
    1UNL    C24   36   0.717   0.160  -0.048
    1UNL    C25   37   0.784   0.029  -0.078
    1UNL    O13   38   0.766  -0.067  -0.007
    1UNL    O14   39   0.874   0.017  -0.180
    1UNL    C26   40   0.470  -0.032   0.209
    1UNL    O15   41   0.461  -0.103   0.333
    1UNL    C27   42   0.459  -0.133   0.091
    1UNL    O16   43   0.556  -0.235   0.095
    1UNL    C28   44   0.324  -0.204   0.104
    1UNL    O17   45   0.324  -0.287   0.212
    1UNL     H1   46  -0.067  -0.377   0.024
    1UNL     H2   47  -0.115  -0.483  -0.106
    1UNL     H3   48  -0.035  -0.337  -0.156
    1UNL     H4   49  -0.368  -0.459  -0.093
    1UNL     H5   50  -0.568  -0.322  -0.092
    1UNL     H6   51  -0.543   0.057  -0.022
    1UNL     H7   52  -0.765   0.011  -0.155
    1UNL     H8   53  -0.694  -0.138  -0.220
    1UNL     H9   54  -0.619   0.028  -0.254
    1UNL    H10   55  -0.733  -0.197   0.048
    1UNL    H11   56  -0.767  -0.027   0.059
    1UNL    H12   57  -0.644  -0.098   0.155
    1UNL    H13   58  -0.327   0.027  -0.034
    1UNL    H14   59  -0.084   0.012   0.091
    1UNL    H15   60  -0.041   0.263   0.022
    1UNL    H16   61  -0.258   0.312  -0.179
    1UNL    H17   62  -0.156   0.453  -0.155
    1UNL    H18   63  -0.405   0.429   0.205
    1UNL    H19   64  -0.561   0.433   0.126
    1UNL    H20   65  -0.552   0.150   0.368
    1UNL    H21   66   0.089   0.333  -0.161
    1UNL    H22   67  -0.044   0.186  -0.344
    1UNL    H23   68   0.218   0.133  -0.198
    1UNL    H24   69   0.008  -0.049  -0.210
    1UNL    H25   70   0.125   0.130   0.035
    1UNL    H26   71   0.115  -0.152   0.130
    1UNL    H27   72   0.363   0.126   0.302
    1UNL    H28   73   0.342   0.111  -0.003
    1UNL    H29   74   0.328   0.269   0.083
    1UNL    H30   75   0.748   0.238  -0.118
    1UNL    H31   76   0.742   0.182   0.056
    1UNL    H32   77   0.910  -0.072  -0.170
    1UNL    H33   78   0.574   0.013   0.218
    1UNL    H34   79   0.377  -0.152   0.329
    1UNL    H35   80   0.462  -0.083  -0.009
    1UNL    H36   81   0.638  -0.192   0.048
    1UNL    H37   82   0.321  -0.260   0.015
    1UNL    H38   83   0.389  -0.363   0.193
   0.00000   0.00000   0.00000   0.00000   0.00000   0.00000   0.00000   0.00000   0.00000
Generated with MDTraj, t= 62.0
 83
    1UNL     C1    1  -0.075  -0.385  -0.089
    1UNL     C2    2  -0.198  -0.301  -0.074
    1UNL     C3    3  -0.324  -0.348  -0.074
    1UNL     C4    4  -0.437  -0.267  -0.078
    1UNL     C5    5  -0.430  -0.128  -0.063
    1UNL     C6    6  -0.548  -0.034  -0.077
    1UNL     C7    7  -0.627  -0.052  -0.203
    1UNL     C8    8  -0.642  -0.063   0.041
    1UNL     C9    9  -0.302  -0.082  -0.065
    1UNL    C10   10  -0.187  -0.159  -0.071
    1UNL     O1   11  -0.063  -0.098  -0.072
    1UNL    C11   12  -0.047   0.034  -0.005
    1UNL     O2   13  -0.141   0.135  -0.043
    1UNL    C12   14  -0.088   0.265  -0.066
    1UNL    C13   15  -0.205   0.372  -0.096
    1UNL     O3   16  -0.281   0.389   0.014
    1UNL    C14   17  -0.409   0.335   0.000
    1UNL     O4   18  -0.438   0.272  -0.098
    1UNL    C15   19  -0.496   0.355   0.119
    1UNL    C16   20  -0.503   0.252   0.231
    1UNL     O5   21  -0.463   0.145   0.200
    1UNL     O6   22  -0.543   0.276   0.355
    1UNL    C17   23   0.008   0.259  -0.188
    1UNL     O7   24  -0.067   0.264  -0.314
    1UNL    C18   25   0.106   0.130  -0.177
    1UNL     O8   26   0.075   0.026  -0.266
    1UNL    C19   27   0.100   0.076  -0.033
    1UNL     O9   28   0.190  -0.035  -0.023
    1UNL    C20   29   0.203  -0.090   0.104
    1UNL    O10   30   0.219   0.003   0.212
    1UNL    C21   31   0.346   0.063   0.215
    1UNL    C22   32   0.365   0.149   0.087
    1UNL    O11   33   0.505   0.180   0.062
    1UNL    C23   34   0.542   0.143  -0.059
    1UNL    O12   35   0.468   0.094  -0.144
    1UNL    C24   36   0.685   0.160  -0.092
    1UNL    C25   37   0.757   0.026  -0.110
    1UNL    O13   38   0.728  -0.047  -0.022
    1UNL    O14   39   0.835  -0.001  -0.213
    1UNL    C26   40   0.452  -0.044   0.235
    1UNL    O15   41   0.447  -0.118   0.356
    1UNL    C27   42   0.454  -0.144   0.114
    1UNL    O16   43   0.547  -0.253   0.133
    1UNL    C28   44   0.315  -0.204   0.104
    1UNL    O17   45   0.298  -0.297   0.207
    1UNL     H1   46  -0.091  -0.484  -0.037
    1UNL     H2   47  -0.038  -0.389  -0.188
    1UNL     H3   48   0.006  -0.329  -0.034
    1UNL     H4   49  -0.325  -0.456  -0.069
    1UNL     H5   50  -0.535  -0.306  -0.082
    1UNL     H6   51  -0.505   0.070  -0.067
    1UNL     H7   52  -0.698   0.035  -0.214
    1UNL     H8   53  -0.684  -0.146  -0.212
    1UNL     H9   54  -0.548  -0.033  -0.283
    1UNL    H10   55  -0.666  -0.170   0.049
    1UNL    H11   56  -0.731  -0.009   0.024
    1UNL    H12   57  -0.589  -0.037   0.131
    1UNL    H13   58  -0.292   0.030  -0.073
    1UNL    H14   59  -0.072  -0.003   0.092
    1UNL    H15   60  -0.044   0.295   0.033
    1UNL    H16   61  -0.266   0.337  -0.173
    1UNL    H17   62  -0.177   0.480  -0.122
    1UNL    H18   63  -0.456   0.447   0.162
    1UNL    H19   64  -0.595   0.369   0.079
    1UNL    H20   65  -0.541   0.187   0.400
    1UNL    H21   66   0.062   0.354  -0.194
    1UNL    H22   67  -0.041   0.186  -0.362
    1UNL    H23   68   0.212   0.162  -0.203
    1UNL    H24   69   0.067  -0.055  -0.211
    1UNL    H25   70   0.127   0.158   0.034
    1UNL    H26   71   0.105  -0.149   0.130
    1UNL    H27   72   0.339   0.133   0.299
    1UNL    H28   73   0.337   0.092  -0.001
    1UNL    H29   74   0.289   0.238   0.090
    1UNL    H30   75   0.700   0.223  -0.185
    1UNL    H31   76   0.728   0.203  -0.004
    1UNL    H32   77   0.866  -0.091  -0.196
    1UNL    H33   78   0.547   0.013   0.235
    1UNL    H34   79   0.408  -0.202   0.330
    1UNL    H35   80   0.486  -0.087   0.022
    1UNL    H36   81   0.633  -0.225   0.103
    1UNL    H37   82   0.313  -0.250   0.007
    1UNL    H38   83   0.370  -0.360   0.207
   0.00000   0.00000   0.00000   0.00000   0.00000   0.00000   0.00000   0.00000   0.00000
Generated with MDTraj, t= 63.0
 83
    1UNL     C1    1  -0.059  -0.361  -0.080
    1UNL     C2    2  -0.179  -0.279  -0.076
    1UNL     C3    3  -0.306  -0.334  -0.079
    1UNL     C4    4  -0.419  -0.258  -0.086
    1UNL     C5    5  -0.407  -0.121  -0.073
    1UNL     C6    6  -0.533  -0.037  -0.087
    1UNL     C7    7  -0.607  -0.061  -0.225
    1UNL     C8    8  -0.629  -0.047   0.042
    1UNL     C9    9  -0.280  -0.065  -0.057
    1UNL    C10   10  -0.161  -0.142  -0.064
    1UNL     O1   11  -0.038  -0.096  -0.054
    1UNL    C11   12  -0.034   0.036  -0.005
    1UNL     O2   13  -0.131   0.132  -0.045
    1UNL    C12   14  -0.088   0.265  -0.066
    1UNL    C13   15  -0.219   0.345  -0.095
    1UNL     O3   16  -0.295   0.356   0.019
    1UNL    C14   17  -0.410   0.294  -0.002
    1UNL     O4   18  -0.436   0.235  -0.103
    1UNL    C15   19  -0.522   0.331   0.110
    1UNL    C16   20  -0.500   0.246   0.231
    1UNL     O5   21  -0.481   0.128   0.219
    1UNL     O6   22  -0.507   0.304   0.357
    1UNL    C17   23   0.007   0.267  -0.184
    1UNL     O7   24  -0.068   0.258  -0.305
    1UNL    C18   25   0.116   0.158  -0.164
    1UNL     O8   26   0.096   0.047  -0.253
    1UNL    C19   27   0.109   0.097  -0.021
    1UNL     O9   28   0.206  -0.014  -0.019
    1UNL    C20   29   0.196  -0.079   0.100
    1UNL    O10   30   0.210   0.005   0.208
    1UNL    C21   31   0.342   0.060   0.218
    1UNL    C22   32   0.370   0.164   0.112
    1UNL    O11   33   0.508   0.177   0.068
    1UNL    C23   34   0.526   0.143  -0.066
    1UNL    O12   35   0.433   0.118  -0.141
    1UNL    C24   36   0.664   0.140  -0.122
    1UNL    C25   37   0.734   0.004  -0.116
    1UNL    O13   38   0.719  -0.068  -0.023
    1UNL    O14   39   0.812  -0.045  -0.223
    1UNL    C26   40   0.449  -0.048   0.229
    1UNL    O15   41   0.414  -0.122   0.348
    1UNL    C27   42   0.439  -0.142   0.106
    1UNL    O16   43   0.541  -0.247   0.103
    1UNL    C28   44   0.299  -0.198   0.111
    1UNL    O17   45   0.276  -0.286   0.218
    1UNL     H1   46  -0.070  -0.456  -0.146
    1UNL     H2   47   0.025  -0.299  -0.102
    1UNL     H3   48  -0.046  -0.393   0.024
    1UNL     H4   49  -0.310  -0.441  -0.074
    1UNL     H5   50  -0.518  -0.307  -0.074
    1UNL     H6   51  -0.488   0.065  -0.092
    1UNL     H7   52  -0.675   0.025  -0.248
    1UNL     H8   53  -0.663  -0.156  -0.230
    1UNL     H9   54  -0.525  -0.049  -0.304
    1UNL    H10   55  -0.698  -0.124   0.034
    1UNL    H11   56  -0.693   0.039   0.042
    1UNL    H12   57  -0.576  -0.058   0.138
    1UNL    H13   58  -0.278   0.041  -0.056
    1UNL    H14   59  -0.058   0.023   0.101
    1UNL    H15   60  -0.041   0.291   0.031
    1UNL    H16   61  -0.277   0.294  -0.170
    1UNL    H17   62  -0.185   0.442  -0.149
    1UNL    H18   63  -0.514   0.438   0.133
    1UNL    H19   64  -0.619   0.309   0.073
    1UNL    H20   65  -0.513   0.237   0.424
    1UNL    H21   66   0.061   0.364  -0.185
    1UNL    H22   67  -0.040   0.170  -0.352
    1UNL    H23   68   0.222   0.175  -0.197
    1UNL    H24   69   0.111  -0.030  -0.193
    1UNL    H25   70   0.128   0.171   0.057
    1UNL    H26   71   0.093  -0.131   0.112
    1UNL    H27   72   0.341   0.110   0.313
    1UNL    H28   73   0.311   0.144   0.023
    1UNL    H29   74   0.338   0.274   0.144
    1UNL    H30   75   0.657   0.157  -0.235
    1UNL    H31   76   0.725   0.210  -0.072
    1UNL    H32   77   0.822  -0.140  -0.203
    1UNL    H33   78   0.550  -0.013   0.251
    1UNL    H34   79   0.323  -0.156   0.336
    1UNL    H35   80   0.449  -0.077   0.015
    1UNL    H36   81   0.625  -0.193   0.082
    1UNL    H37   82   0.279  -0.245   0.012
    1UNL    H38   83   0.348  -0.355   0.227
   0.00000   0.00000   0.00000   0.00000   0.00000   0.00000   0.00000   0.00000   0.00000
Generated with MDTraj, t= 64.0
 83
    1UNL     C1    1  -0.046  -0.357  -0.054
    1UNL     C2    2  -0.181  -0.287  -0.062
    1UNL     C3    3  -0.298  -0.352  -0.100
    1UNL     C4    4  -0.417  -0.281  -0.102
    1UNL     C5    5  -0.423  -0.144  -0.087
    1UNL     C6    6  -0.551  -0.061  -0.091
    1UNL     C7    7  -0.616  -0.081  -0.219
    1UNL     C8    8  -0.632  -0.102   0.032
    1UNL     C9    9  -0.308  -0.075  -0.058
    1UNL    C10   10  -0.185  -0.148  -0.047
    1UNL     O1   11  -0.058  -0.081  -0.033
    1UNL    C11   12  -0.052   0.058   0.007
    1UNL     O2   13  -0.139   0.137  -0.075
    1UNL    C12   14  -0.103   0.276  -0.075
    1UNL    C13   15  -0.223   0.365  -0.100
    1UNL     O3   16  -0.308   0.374   0.018
    1UNL    C14   17  -0.431   0.315  -0.005
    1UNL     O4   18  -0.456   0.268  -0.115
    1UNL    C15   19  -0.537   0.308   0.099
    1UNL    C16   20  -0.487   0.238   0.223
    1UNL     O5   21  -0.501   0.118   0.229
    1UNL     O6   22  -0.446   0.304   0.335
    1UNL    C17   23   0.010   0.288  -0.181
    1UNL     O7   24  -0.048   0.282  -0.310
    1UNL    C18   25   0.110   0.166  -0.157
    1UNL     O8   26   0.094   0.068  -0.250
    1UNL    C19   27   0.095   0.104  -0.013
    1UNL     O9   28   0.188  -0.005  -0.008
    1UNL    C20   29   0.196  -0.062   0.118
    1UNL    O10   30   0.231   0.028   0.233
    1UNL    C21   31   0.369   0.071   0.221
    1UNL    C22   32   0.401   0.157   0.100
    1UNL    O11   33   0.535   0.143   0.072
    1UNL    C23   34   0.547   0.153  -0.065
    1UNL    O12   35   0.460   0.176  -0.146
    1UNL    C24   36   0.693   0.129  -0.108
    1UNL    C25   37   0.723  -0.020  -0.111
    1UNL    O13   38   0.722  -0.078  -0.005
    1UNL    O14   39   0.761  -0.073  -0.230
    1UNL    C26   40   0.463  -0.057   0.221
    1UNL    O15   41   0.460  -0.125   0.348
    1UNL    C27   42   0.438  -0.150   0.100
    1UNL    O16   43   0.524  -0.273   0.102
    1UNL    C28   44   0.288  -0.186   0.104
    1UNL    O17   45   0.269  -0.279   0.210
    1UNL     H1   46   0.026  -0.358  -0.142
    1UNL     H2   47   0.012  -0.319   0.033
    1UNL     H3   48  -0.059  -0.460  -0.028
    1UNL     H4   49  -0.291  -0.461  -0.091
    1UNL     H5   50  -0.506  -0.336  -0.114
    1UNL     H6   51  -0.521   0.047  -0.084
    1UNL     H7   52  -0.715  -0.028  -0.223
    1UNL     H8   53  -0.633  -0.190  -0.236
    1UNL     H9   54  -0.555  -0.033  -0.302
    1UNL    H10   55  -0.661  -0.201   0.040
    1UNL    H11   56  -0.727  -0.051   0.030
    1UNL    H12   57  -0.582  -0.076   0.127
    1UNL    H13   58  -0.313   0.027  -0.043
    1UNL    H14   59  -0.093   0.078   0.111
    1UNL    H15   60  -0.082   0.290   0.033
    1UNL    H16   61  -0.272   0.322  -0.187
    1UNL    H17   62  -0.191   0.474  -0.124
    1UNL    H18   63  -0.570   0.409   0.123
    1UNL    H19   64  -0.616   0.251   0.055
    1UNL    H20   65  -0.418   0.244   0.402
    1UNL    H21   66   0.051   0.391  -0.155
    1UNL    H22   67  -0.050   0.193  -0.333
    1UNL    H23   68   0.213   0.197  -0.171
    1UNL    H24   69   0.157  -0.005  -0.224
    1UNL    H25   70   0.120   0.189   0.050
    1UNL    H26   71   0.093  -0.103   0.149
    1UNL    H27   72   0.392   0.135   0.305
    1UNL    H28   73   0.342   0.121   0.014
    1UNL    H29   74   0.375   0.272   0.110
    1UNL    H30   75   0.703   0.167  -0.215
    1UNL    H31   76   0.762   0.180  -0.043
    1UNL    H32   77   0.778  -0.170  -0.219
    1UNL    H33   78   0.568  -0.036   0.219
    1UNL    H34   79   0.381  -0.182   0.349
    1UNL    H35   80   0.471  -0.093   0.013
    1UNL    H36   81   0.618  -0.241   0.084
    1UNL    H37   82   0.274  -0.230  -0.002
    1UNL    H38   83   0.320  -0.361   0.191
   0.00000   0.00000   0.00000   0.00000   0.00000   0.00000   0.00000   0.00000   0.00000
Generated with MDTraj, t= 65.0
 83
    1UNL     C1    1  -0.058  -0.352  -0.047
    1UNL     C2    2  -0.185  -0.280  -0.058
    1UNL     C3    3  -0.296  -0.357  -0.092
    1UNL     C4    4  -0.421  -0.295  -0.102
    1UNL     C5    5  -0.426  -0.158  -0.073
    1UNL     C6    6  -0.556  -0.084  -0.086
    1UNL     C7    7  -0.633  -0.095  -0.217
    1UNL     C8    8  -0.641  -0.123   0.038
    1UNL     C9    9  -0.309  -0.077  -0.054
    1UNL    C10   10  -0.183  -0.135  -0.046
    1UNL     O1   11  -0.058  -0.078  -0.030
    1UNL    C11   12  -0.053   0.059   0.013
    1UNL     O2   13  -0.145   0.147  -0.051
    1UNL    C12   14  -0.114   0.288  -0.062
    1UNL    C13   15  -0.246   0.346  -0.119
    1UNL     O3   16  -0.341   0.388  -0.023
    1UNL    C14   17  -0.460   0.321  -0.019
    1UNL     O4   18  -0.491   0.239  -0.104
    1UNL    C15   19  -0.540   0.323   0.103
    1UNL    C16   20  -0.478   0.229   0.203
    1UNL     O5   21  -0.504   0.110   0.181
    1UNL     O6   22  -0.383   0.271   0.282
    1UNL    C17   23   0.016   0.311  -0.148
    1UNL     O7   24  -0.026   0.328  -0.279
    1UNL    C18   25   0.110   0.180  -0.141
    1UNL     O8   26   0.061   0.087  -0.235
    1UNL    C19   27   0.091   0.114   0.001
    1UNL     O9   28   0.183   0.007   0.007
    1UNL    C20   29   0.203  -0.051   0.128
    1UNL    O10   30   0.254   0.043   0.227
    1UNL    C21   31   0.393   0.066   0.206
    1UNL    C22   32   0.424   0.152   0.088
    1UNL    O11   33   0.560   0.159   0.073
    1UNL    C23   34   0.591   0.169  -0.057
    1UNL    O12   35   0.515   0.206  -0.141
    1UNL    C24   36   0.729   0.118  -0.100
    1UNL    C25   37   0.717  -0.034  -0.103
    1UNL    O13   38   0.719  -0.103   0.001
    1UNL    O14   39   0.711  -0.095  -0.225
    1UNL    C26   40   0.484  -0.067   0.205
    1UNL    O15   41   0.459  -0.129   0.329
    1UNL    C27   42   0.433  -0.155   0.088
    1UNL    O16   43   0.500  -0.284   0.082
    1UNL    C28   44   0.281  -0.184   0.116
    1UNL    O17   45   0.266  -0.273   0.224
    1UNL     H1   46   0.036  -0.294  -0.042
    1UNL     H2   47  -0.062  -0.408   0.054
    1UNL     H3   48  -0.051  -0.429  -0.120
    1UNL     H4   49  -0.292  -0.462  -0.104
    1UNL     H5   50  -0.517  -0.347  -0.121
    1UNL     H6   51  -0.526   0.024  -0.076
    1UNL     H7   52  -0.729  -0.036  -0.222
    1UNL     H8   53  -0.660  -0.203  -0.234
    1UNL     H9   54  -0.577  -0.058  -0.306
    1UNL    H10   55  -0.650  -0.227   0.054
    1UNL    H11   56  -0.742  -0.088   0.022
    1UNL    H12   57  -0.602  -0.080   0.129
    1UNL    H13   58  -0.320   0.036  -0.045
    1UNL    H14   59  -0.096   0.066   0.119
    1UNL    H15   60  -0.086   0.333   0.034
    1UNL    H16   61  -0.291   0.267  -0.176
    1UNL    H17   62  -0.215   0.431  -0.192
    1UNL    H18   63  -0.555   0.425   0.136
    1UNL    H19   64  -0.633   0.275   0.078
    1UNL    H20   65  -0.354   0.190   0.325
    1UNL    H21   66   0.067   0.410  -0.121
    1UNL    H22   67  -0.014   0.234  -0.322
    1UNL    H23   68   0.214   0.190  -0.164
    1UNL    H24   69   0.023   0.012  -0.189
    1UNL    H25   70   0.112   0.175   0.089
    1UNL    H26   71   0.099  -0.079   0.161
    1UNL    H27   72   0.410   0.135   0.291
    1UNL    H28   73   0.380   0.112  -0.004
    1UNL    H29   74   0.378   0.259   0.095
    1UNL    H30   75   0.741   0.165  -0.199
    1UNL    H31   76   0.810   0.155  -0.031
    1UNL    H32   77   0.704  -0.193  -0.210
    1UNL    H33   78   0.588  -0.051   0.186
    1UNL    H34   79   0.358  -0.130   0.329
    1UNL    H35   80   0.450  -0.103  -0.007
    1UNL    H36   81   0.594  -0.264   0.051
    1UNL    H37   82   0.237  -0.227   0.016
    1UNL    H38   83   0.350  -0.322   0.236
   0.00000   0.00000   0.00000   0.00000   0.00000   0.00000   0.00000   0.00000   0.00000
Generated with MDTraj, t= 66.0
 83
    1UNL     C1    1  -0.040  -0.341  -0.065
    1UNL     C2    2  -0.178  -0.278  -0.057
    1UNL     C3    3  -0.295  -0.350  -0.066
    1UNL     C4    4  -0.416  -0.284  -0.071
    1UNL     C5    5  -0.427  -0.148  -0.055
    1UNL     C6    6  -0.557  -0.073  -0.067
    1UNL     C7    7  -0.616  -0.086  -0.208
    1UNL     C8    8  -0.648  -0.104   0.051
    1UNL     C9    9  -0.308  -0.077  -0.032
    1UNL    C10   10  -0.185  -0.140  -0.041
    1UNL     O1   11  -0.067  -0.067  -0.014
    1UNL    C11   12  -0.065   0.075   0.017
    1UNL     O2   13  -0.154   0.142  -0.071
    1UNL    C12   14  -0.139   0.283  -0.061
    1UNL    C13   15  -0.252   0.345  -0.145
    1UNL     O3   16  -0.347   0.397  -0.064
    1UNL    C14   17  -0.444   0.300  -0.045
    1UNL     O4   18  -0.467   0.212  -0.127
    1UNL    C15   19  -0.516   0.290   0.083
    1UNL    C16   20  -0.466   0.190   0.186
    1UNL     O5   21  -0.522   0.079   0.190
    1UNL     O6   22  -0.359   0.216   0.262
    1UNL    C17   23  -0.002   0.328  -0.125
    1UNL     O7   24  -0.017   0.377  -0.259
    1UNL    C18   25   0.081   0.195  -0.137
    1UNL     O8   26   0.024   0.114  -0.234
    1UNL    C19   27   0.086   0.127   0.004
    1UNL     O9   28   0.178   0.017   0.003
    1UNL    C20   29   0.193  -0.041   0.129
    1UNL    O10   30   0.253   0.047   0.233
    1UNL    C21   31   0.390   0.068   0.213
    1UNL    C22   32   0.426   0.153   0.098
    1UNL    O11   33   0.565   0.157   0.079
    1UNL    C23   34   0.615   0.161  -0.052
    1UNL    O12   35   0.545   0.213  -0.136
    1UNL    C24   36   0.739   0.082  -0.093
    1UNL    C25   37   0.722  -0.060  -0.107
    1UNL    O13   38   0.735  -0.128  -0.006
    1UNL    O14   39   0.688  -0.110  -0.226
    1UNL    C26   40   0.472  -0.061   0.199
    1UNL    O15   41   0.489  -0.133   0.321
    1UNL    C27   42   0.418  -0.146   0.090
    1UNL    O16   43   0.493  -0.264   0.069
    1UNL    C28   44   0.273  -0.175   0.114
    1UNL    O17   45   0.251  -0.256   0.222
    1UNL     H1   46   0.018  -0.317   0.021
    1UNL     H2   47  -0.051  -0.456  -0.065
    1UNL     H3   48   0.006  -0.318  -0.162
    1UNL     H4   49  -0.292  -0.459  -0.069
    1UNL     H5   50  -0.507  -0.341  -0.069
    1UNL     H6   51  -0.526   0.034  -0.055
    1UNL     H7   52  -0.705  -0.020  -0.233
    1UNL     H8   53  -0.648  -0.194  -0.228
    1UNL     H9   54  -0.540  -0.059  -0.283
    1UNL    H10   55  -0.713  -0.187   0.019
    1UNL    H11   56  -0.715  -0.021   0.060
    1UNL    H12   57  -0.596  -0.122   0.139
    1UNL    H13   58  -0.309   0.031  -0.032
    1UNL    H14   59  -0.104   0.095   0.124
    1UNL    H15   60  -0.145   0.317   0.043
    1UNL    H16   61  -0.292   0.262  -0.198
    1UNL    H17   62  -0.220   0.424  -0.223
    1UNL    H18   63  -0.490   0.383   0.130
    1UNL    H19   64  -0.623   0.283   0.065
    1UNL    H20   65  -0.345   0.135   0.316
    1UNL    H21   66   0.055   0.413  -0.078
    1UNL    H22   67  -0.028   0.298  -0.312
    1UNL    H23   68   0.174   0.216  -0.179
    1UNL    H24   69  -0.027   0.038  -0.190
    1UNL    H25   70   0.134   0.186   0.084
    1UNL    H26   71   0.098  -0.080   0.173
    1UNL    H27   72   0.423   0.113   0.312
    1UNL    H28   73   0.384   0.117   0.004
    1UNL    H29   74   0.394   0.260   0.110
    1UNL    H30   75   0.773   0.122  -0.186
    1UNL    H31   76   0.817   0.106  -0.011
    1UNL    H32   77   0.688  -0.209  -0.222
    1UNL    H33   78   0.579  -0.045   0.175
    1UNL    H34   79   0.399  -0.136   0.361
    1UNL    H35   80   0.416  -0.089  -0.005
    1UNL    H36   81   0.592  -0.245   0.068
    1UNL    H37   82   0.232  -0.231   0.020
    1UNL    H38   83   0.327  -0.322   0.226
   0.00000   0.00000   0.00000   0.00000   0.00000   0.00000   0.00000   0.00000   0.00000
Generated with MDTraj, t= 67.0
 83
    1UNL     C1    1  -0.053  -0.332  -0.045
    1UNL     C2    2  -0.176  -0.256  -0.044
    1UNL     C3    3  -0.293  -0.329  -0.058
    1UNL     C4    4  -0.417  -0.269  -0.053
    1UNL     C5    5  -0.430  -0.136  -0.033
    1UNL     C6    6  -0.575  -0.078  -0.042
    1UNL     C7    7  -0.602  -0.062  -0.190
    1UNL     C8    8  -0.676  -0.155   0.039
    1UNL     C9    9  -0.316  -0.059  -0.018
    1UNL    C10   10  -0.188  -0.118  -0.022
    1UNL     O1   11  -0.062  -0.061  -0.013
    1UNL    C11   12  -0.057   0.083  -0.000
    1UNL     O2   13  -0.147   0.155  -0.086
    1UNL    C12   14  -0.134   0.294  -0.083
    1UNL    C13   15  -0.260   0.366  -0.145
    1UNL     O3   16  -0.365   0.384  -0.052
    1UNL    C14   17  -0.438   0.271  -0.041
    1UNL     O4   18  -0.425   0.174  -0.117
    1UNL    C15   19  -0.532   0.260   0.086
    1UNL    C16   20  -0.473   0.159   0.181
    1UNL     O5   21  -0.535   0.059   0.218
    1UNL     O6   22  -0.346   0.188   0.218
    1UNL    C17   23   0.009   0.344  -0.136
    1UNL     O7   24  -0.013   0.389  -0.263
    1UNL    C18   25   0.112   0.223  -0.142
    1UNL     O8   26   0.092   0.141  -0.251
    1UNL    C19   27   0.089   0.138  -0.006
    1UNL     O9   28   0.180   0.034  -0.014
    1UNL    C20   29   0.199  -0.025   0.115
    1UNL    O10   30   0.253   0.049   0.221
    1UNL    C21   31   0.392   0.069   0.216
    1UNL    C22   32   0.442   0.162   0.108
    1UNL    O11   33   0.581   0.149   0.077
    1UNL    C23   34   0.605   0.139  -0.052
    1UNL    O12   35   0.526   0.160  -0.139
    1UNL    C24   36   0.733   0.087  -0.096
    1UNL    C25   37   0.718  -0.060  -0.107
    1UNL    O13   38   0.728  -0.132  -0.009
    1UNL    O14   39   0.684  -0.113  -0.227
    1UNL    C26   40   0.465  -0.062   0.213
    1UNL    O15   41   0.442  -0.141   0.330
    1UNL    C27   42   0.419  -0.144   0.090
    1UNL    O16   43   0.485  -0.266   0.086
    1UNL    C28   44   0.266  -0.166   0.098
    1UNL    O17   45   0.237  -0.251   0.199
    1UNL     H1   46  -0.058  -0.411   0.026
    1UNL     H2   47  -0.029  -0.376  -0.146
    1UNL     H3   48   0.034  -0.260  -0.027
    1UNL     H4   49  -0.285  -0.434  -0.053
    1UNL     H5   50  -0.504  -0.331  -0.053
    1UNL     H6   51  -0.568   0.027  -0.005
    1UNL     H7   52  -0.707  -0.018  -0.195
    1UNL     H8   53  -0.607  -0.166  -0.235
    1UNL     H9   54  -0.533   0.006  -0.246
    1UNL    H10   55  -0.651  -0.264   0.037
    1UNL    H11   56  -0.776  -0.150   0.003
    1UNL    H12   57  -0.668  -0.123   0.138
    1UNL    H13   58  -0.323   0.040   0.014
    1UNL    H14   59  -0.100   0.105   0.105
    1UNL    H15   60  -0.151   0.312   0.025
    1UNL    H16   61  -0.297   0.309  -0.225
    1UNL    H17   62  -0.237   0.470  -0.187
    1UNL    H18   63  -0.539   0.347   0.148
    1UNL    H19   64  -0.632   0.226   0.057
    1UNL    H20   65  -0.302   0.114   0.269
    1UNL    H21   66   0.048   0.426  -0.076
    1UNL    H22   67   0.017   0.312  -0.321
    1UNL    H23   68   0.207   0.261  -0.144
    1UNL    H24   69   0.027   0.071  -0.231
    1UNL    H25   70   0.129   0.188   0.085
    1UNL    H26   71   0.108  -0.054   0.170
    1UNL    H27   72   0.412   0.115   0.318
    1UNL    H28   73   0.391   0.132   0.018
    1UNL    H29   74   0.421   0.266   0.128
    1UNL    H30   75   0.762   0.130  -0.190
    1UNL    H31   76   0.804   0.123  -0.012
    1UNL    H32   77   0.705  -0.209  -0.228
    1UNL    H33   78   0.575  -0.033   0.211
    1UNL    H34   79   0.346  -0.144   0.343
    1UNL    H35   80   0.431  -0.080  -0.002
    1UNL    H36   81   0.577  -0.242   0.052
    1UNL    H37   82   0.230  -0.212  -0.001
    1UNL    H38   83   0.317  -0.298   0.219
   0.00000   0.00000   0.00000   0.00000   0.00000   0.00000   0.00000   0.00000   0.00000
Generated with MDTraj, t= 68.0
 83
    1UNL     C1    1  -0.019  -0.324  -0.013
    1UNL     C2    2  -0.155  -0.260  -0.023
    1UNL     C3    3  -0.267  -0.342  -0.032
    1UNL     C4    4  -0.393  -0.287  -0.036
    1UNL     C5    5  -0.407  -0.145  -0.041
    1UNL     C6    6  -0.544  -0.083  -0.041
    1UNL     C7    7  -0.604  -0.033  -0.181
    1UNL     C8    8  -0.654  -0.152   0.041
    1UNL     C9    9  -0.289  -0.070  -0.044
    1UNL    C10   10  -0.161  -0.121  -0.035
    1UNL     O1   11  -0.045  -0.042  -0.032
    1UNL    C11   12  -0.057   0.095  -0.002
    1UNL     O2   13  -0.150   0.162  -0.092
    1UNL    C12   14  -0.133   0.304  -0.087
    1UNL    C13   15  -0.257   0.377  -0.140
    1UNL     O3   16  -0.353   0.377  -0.034
    1UNL    C14   17  -0.436   0.268  -0.036
    1UNL     O4   18  -0.464   0.191  -0.125
    1UNL    C15   19  -0.510   0.267   0.094
    1UNL    C16   20  -0.473   0.146   0.181
    1UNL     O5   21  -0.554   0.072   0.238
    1UNL     O6   22  -0.341   0.141   0.215
    1UNL    C17   23   0.002   0.349  -0.151
    1UNL     O7   24  -0.013   0.395  -0.286
    1UNL    C18   25   0.109   0.240  -0.137
    1UNL     O8   26   0.107   0.155  -0.252
    1UNL    C19   27   0.088   0.153  -0.005
    1UNL     O9   28   0.190   0.060  -0.010
    1UNL    C20   29   0.186  -0.023   0.110
    1UNL    O10   30   0.230   0.039   0.230
    1UNL    C21   31   0.375   0.073   0.224
    1UNL    C22   32   0.416   0.169   0.106
    1UNL    O11   33   0.548   0.148   0.072
    1UNL    C23   34   0.569   0.117  -0.060
    1UNL    O12   35   0.476   0.127  -0.140
    1UNL    C24   36   0.712   0.067  -0.092
    1UNL    C25   37   0.729  -0.079  -0.108
    1UNL    O13   38   0.731  -0.150  -0.010
    1UNL    O14   39   0.730  -0.124  -0.236
    1UNL    C26   40   0.449  -0.057   0.222
    1UNL    O15   41   0.413  -0.137   0.327
    1UNL    C27   42   0.420  -0.130   0.095
    1UNL    O16   43   0.473  -0.259   0.104
    1UNL    C28   44   0.268  -0.159   0.082
    1UNL    O17   45   0.224  -0.261   0.158
    1UNL     H1   46  -0.018  -0.417  -0.071
    1UNL     H2   47   0.059  -0.260  -0.054
    1UNL     H3   48   0.017  -0.341   0.095
    1UNL     H4   49  -0.262  -0.450  -0.015
    1UNL     H5   50  -0.483  -0.350  -0.035
    1UNL     H6   51  -0.510   0.013   0.006
    1UNL     H7   52  -0.691   0.034  -0.157
    1UNL     H8   53  -0.644  -0.123  -0.232
    1UNL     H9   54  -0.534   0.027  -0.246
    1UNL    H10   55  -0.713  -0.205  -0.035
    1UNL    H11   56  -0.719  -0.092   0.099
    1UNL    H12   57  -0.612  -0.228   0.103
    1UNL    H13   58  -0.289   0.044  -0.048
    1UNL    H14   59  -0.119   0.106   0.094
    1UNL    H15   60  -0.136   0.326   0.023
    1UNL    H16   61  -0.304   0.329  -0.219
    1UNL    H17   62  -0.225   0.479  -0.174
    1UNL    H18   63  -0.485   0.358   0.144
    1UNL    H19   64  -0.618   0.266   0.076
    1UNL    H20   65  -0.322   0.069   0.283
    1UNL    H21   66   0.040   0.435  -0.099
    1UNL    H22   67   0.010   0.317  -0.344
    1UNL    H23   68   0.203   0.281  -0.154
    1UNL    H24   69   0.052   0.077  -0.240
    1UNL    H25   70   0.104   0.208   0.091
    1UNL    H26   71   0.085  -0.048   0.134
    1UNL    H27   72   0.394   0.127   0.320
    1UNL    H28   73   0.359   0.131   0.024
    1UNL    H29   74   0.399   0.273   0.125
    1UNL    H30   75   0.740   0.127  -0.181
    1UNL    H31   76   0.783   0.092  -0.010
    1UNL    H32   77   0.715  -0.220  -0.227
    1UNL    H33   78   0.564  -0.050   0.227
    1UNL    H34   79   0.315  -0.120   0.341
    1UNL    H35   80   0.456  -0.074   0.003
    1UNL    H36   81   0.567  -0.263   0.064
    1UNL    H37   82   0.256  -0.172  -0.029
    1UNL    H38   83   0.301  -0.324   0.166
   0.00000   0.00000   0.00000   0.00000   0.00000   0.00000   0.00000   0.00000   0.00000
Generated with MDTraj, t= 69.0
 83
    1UNL     C1    1   0.006  -0.330  -0.011
    1UNL     C2    2  -0.129  -0.267  -0.030
    1UNL     C3    3  -0.247  -0.341  -0.017
    1UNL     C4    4  -0.370  -0.281  -0.025
    1UNL     C5    5  -0.387  -0.144  -0.032
    1UNL     C6    6  -0.527  -0.074  -0.044
    1UNL     C7    7  -0.574  -0.077  -0.192
    1UNL     C8    8  -0.627  -0.131   0.047
    1UNL     C9    9  -0.279  -0.067  -0.057
    1UNL    C10   10  -0.148  -0.128  -0.059
    1UNL     O1   11  -0.037  -0.047  -0.077
    1UNL    C11   12  -0.057   0.085  -0.023
    1UNL     O2   13  -0.156   0.160  -0.102
    1UNL    C12   14  -0.143   0.304  -0.082
    1UNL    C13   15  -0.257   0.389  -0.127
    1UNL     O3   16  -0.347   0.402  -0.014
    1UNL    C14   17  -0.439   0.296  -0.001
    1UNL     O4   18  -0.456   0.212  -0.085
    1UNL    C15   19  -0.499   0.294   0.136
    1UNL    C16   20  -0.479   0.161   0.191
    1UNL     O5   21  -0.571   0.087   0.215
    1UNL     O6   22  -0.350   0.126   0.190
    1UNL    C17   23  -0.015   0.350  -0.154
    1UNL     O7   24  -0.045   0.377  -0.291
    1UNL    C18   25   0.093   0.241  -0.151
    1UNL     O8   26   0.067   0.155  -0.256
    1UNL    C19   27   0.084   0.155  -0.021
    1UNL     O9   28   0.190   0.057  -0.016
    1UNL    C20   29   0.182  -0.027   0.096
    1UNL    O10   30   0.220   0.037   0.216
    1UNL    C21   31   0.365   0.073   0.224
    1UNL    C22   32   0.420   0.167   0.111
    1UNL    O11   33   0.551   0.155   0.078
    1UNL    C23   34   0.559   0.093  -0.044
    1UNL    O12   35   0.472   0.059  -0.123
    1UNL    C24   36   0.698   0.077  -0.095
    1UNL    C25   37   0.724  -0.074  -0.106
    1UNL    O13   38   0.699  -0.141  -0.011
    1UNL    O14   39   0.780  -0.122  -0.216
    1UNL    C26   40   0.442  -0.060   0.227
    1UNL    O15   41   0.391  -0.134   0.338
    1UNL    C27   42   0.414  -0.129   0.084
    1UNL    O16   43   0.478  -0.255   0.091
    1UNL    C28   44   0.258  -0.160   0.077
    1UNL    O17   45   0.227  -0.260   0.168
    1UNL     H1   46   0.054  -0.356  -0.111
    1UNL     H2   47   0.071  -0.284   0.060
    1UNL     H3   48  -0.010  -0.430   0.040
    1UNL     H4   49  -0.243  -0.446  -0.006
    1UNL     H5   50  -0.460  -0.331   0.001
    1UNL     H6   51  -0.522   0.035  -0.021
    1UNL     H7   52  -0.681  -0.047  -0.208
    1UNL     H8   53  -0.565  -0.176  -0.238
    1UNL     H9   54  -0.515  -0.004  -0.257
    1UNL    H10   55  -0.620  -0.235   0.034
    1UNL    H11   56  -0.723  -0.098   0.019
    1UNL    H12   57  -0.607  -0.103   0.151
    1UNL    H13   58  -0.302   0.031  -0.086
    1UNL    H14   59  -0.110   0.080   0.076
    1UNL    H15   60  -0.134   0.317   0.029
    1UNL    H16   61  -0.302   0.355  -0.215
    1UNL    H17   62  -0.212   0.490  -0.142
    1UNL    H18   63  -0.456   0.377   0.187
    1UNL    H19   64  -0.607   0.310   0.127
    1UNL    H20   65  -0.345   0.035   0.225
    1UNL    H21   66   0.023   0.439  -0.110
    1UNL    H22   67  -0.054   0.295  -0.336
    1UNL    H23   68   0.190   0.268  -0.171
    1UNL    H24   69   0.021   0.072  -0.224
    1UNL    H25   70   0.105   0.221   0.066
    1UNL    H26   71   0.082  -0.056   0.119
    1UNL    H27   72   0.371   0.126   0.321
    1UNL    H28   73   0.362   0.138   0.020
    1UNL    H29   74   0.413   0.271   0.133
    1UNL    H30   75   0.713   0.128  -0.197
    1UNL    H31   76   0.767   0.119  -0.025
    1UNL    H32   77   0.769  -0.217  -0.221
    1UNL    H33   78   0.554  -0.051   0.251
    1UNL    H34   79   0.295  -0.124   0.334
    1UNL    H35   80   0.452  -0.080  -0.010
    1UNL    H36   81   0.569  -0.241   0.067
    1UNL    H37   82   0.237  -0.191  -0.024
    1UNL    H38   83   0.316  -0.290   0.200
   0.00000   0.00000   0.00000   0.00000   0.00000   0.00000   0.00000   0.00000   0.00000
Generated with MDTraj, t= 70.0
 83
    1UNL     C1    1  -0.028  -0.325  -0.067
    1UNL     C2    2  -0.158  -0.260  -0.038
    1UNL     C3    3  -0.269  -0.338  -0.014
    1UNL     C4    4  -0.393  -0.280  -0.017
    1UNL     C5    5  -0.413  -0.147  -0.040
    1UNL     C6    6  -0.547  -0.097  -0.069
    1UNL     C7    7  -0.597  -0.138  -0.209
    1UNL     C8    8  -0.655  -0.125   0.045
    1UNL     C9    9  -0.297  -0.067  -0.053
    1UNL    C10   10  -0.165  -0.121  -0.055
    1UNL     O1   11  -0.050  -0.049  -0.078
    1UNL    C11   12  -0.056   0.083  -0.030
    1UNL     O2   13  -0.153   0.173  -0.083
    1UNL    C12   14  -0.118   0.317  -0.080
    1UNL    C13   15  -0.241   0.400  -0.109
    1UNL     O3   16  -0.331   0.398   0.005
    1UNL    C14   17  -0.420   0.300   0.013
    1UNL     O4   18  -0.460   0.231  -0.074
    1UNL    C15   19  -0.494   0.291   0.150
    1UNL    C16   20  -0.489   0.153   0.210
    1UNL     O5   21  -0.585   0.087   0.236
    1UNL     O6   22  -0.362   0.107   0.235
    1UNL    C17   23   0.004   0.346  -0.172
    1UNL     O7   24  -0.031   0.368  -0.307
    1UNL    C18   25   0.100   0.220  -0.173
    1UNL     O8   26   0.056   0.134  -0.276
    1UNL    C19   27   0.085   0.149  -0.036
    1UNL     O9   28   0.188   0.052  -0.038
    1UNL    C20   29   0.183  -0.022   0.079
    1UNL    O10   30   0.232   0.049   0.202
    1UNL    C21   31   0.373   0.081   0.211
    1UNL    C22   32   0.418   0.183   0.104
    1UNL    O11   33   0.553   0.177   0.068
    1UNL    C23   34   0.579   0.106  -0.049
    1UNL    O12   35   0.497   0.068  -0.128
    1UNL    C24   36   0.722   0.080  -0.072
    1UNL    C25   37   0.753  -0.067  -0.081
    1UNL    O13   38   0.710  -0.150  -0.004
    1UNL    O14   39   0.832  -0.100  -0.192
    1UNL    C26   40   0.443  -0.054   0.216
    1UNL    O15   41   0.436  -0.116   0.343
    1UNL    C27   42   0.407  -0.142   0.091
    1UNL    O16   43   0.460  -0.271   0.105
    1UNL    C28   44   0.251  -0.164   0.073
    1UNL    O17   45   0.193  -0.251   0.169
    1UNL     H1   46   0.063  -0.254  -0.084
    1UNL     H2   47  -0.011  -0.418  -0.011
    1UNL     H3   48  -0.037  -0.368  -0.169
    1UNL     H4   49  -0.248  -0.441   0.016
    1UNL     H5   50  -0.475  -0.346   0.012
    1UNL     H6   51  -0.531   0.014  -0.073
    1UNL     H7   52  -0.686  -0.089  -0.254
    1UNL     H8   53  -0.622  -0.243  -0.202
    1UNL     H9   54  -0.521  -0.129  -0.294
    1UNL    H10   55  -0.684  -0.223   0.060
    1UNL    H11   56  -0.742  -0.062   0.039
    1UNL    H12   57  -0.609  -0.095   0.142
    1UNL    H13   58  -0.308   0.039  -0.052
    1UNL    H14   59  -0.088   0.074   0.075
    1UNL    H15   60  -0.087   0.337   0.024
    1UNL    H16   61  -0.292   0.364  -0.192
    1UNL    H17   62  -0.211   0.509  -0.112
    1UNL    H18   63  -0.448   0.359   0.220
    1UNL    H19   64  -0.591   0.335   0.136
    1UNL    H20   65  -0.377   0.023   0.280
    1UNL    H21   66   0.045   0.440  -0.140
    1UNL    H22   67  -0.041   0.275  -0.353
    1UNL    H23   68   0.197   0.251  -0.187
    1UNL    H24   69   0.022   0.053  -0.234
    1UNL    H25   70   0.115   0.222   0.041
    1UNL    H26   71   0.086  -0.055   0.108
    1UNL    H27   72   0.391   0.127   0.307
    1UNL    H28   73   0.375   0.144   0.006
    1UNL    H29   74   0.385   0.282   0.122
    1UNL    H30   75   0.756   0.127  -0.171
    1UNL    H31   76   0.777   0.126   0.006
    1UNL    H32   77   0.844  -0.196  -0.182
    1UNL    H33   78   0.554  -0.029   0.216
    1UNL    H34   79   0.355  -0.173   0.342
    1UNL    H35   80   0.461  -0.092   0.004
    1UNL    H36   81   0.560  -0.254   0.122
    1UNL    H37   82   0.230  -0.204  -0.023
    1UNL    H38   83   0.260  -0.325   0.183
   0.00000   0.00000   0.00000   0.00000   0.00000   0.00000   0.00000   0.00000   0.00000
Generated with MDTraj, t= 71.0
 83
    1UNL     C1    1  -0.045  -0.305  -0.072
    1UNL     C2    2  -0.185  -0.254  -0.062
    1UNL     C3    3  -0.299  -0.328  -0.053
    1UNL     C4    4  -0.425  -0.270  -0.044
    1UNL     C5    5  -0.439  -0.133  -0.050
    1UNL     C6    6  -0.574  -0.075  -0.069
    1UNL     C7    7  -0.637  -0.134  -0.196
    1UNL     C8    8  -0.672  -0.111   0.043
    1UNL     C9    9  -0.321  -0.057  -0.053
    1UNL    C10   10  -0.198  -0.115  -0.061
    1UNL     O1   11  -0.076  -0.050  -0.068
    1UNL    C11   12  -0.065   0.082  -0.020
    1UNL     O2   13  -0.158   0.163  -0.093
    1UNL    C12   14  -0.121   0.300  -0.082
    1UNL    C13   15  -0.245   0.390  -0.096
    1UNL     O3   16  -0.318   0.399   0.018
    1UNL    C14   17  -0.407   0.290   0.026
    1UNL     O4   18  -0.428   0.212  -0.061
    1UNL    C15   19  -0.489   0.281   0.155
    1UNL    C16   20  -0.488   0.149   0.218
    1UNL     O5   21  -0.585   0.088   0.250
    1UNL     O6   22  -0.368   0.110   0.266
    1UNL    C17   23  -0.009   0.332  -0.182
    1UNL     O7   24  -0.057   0.354  -0.316
    1UNL    C18   25   0.095   0.209  -0.180
    1UNL     O8   26   0.050   0.127  -0.285
    1UNL    C19   27   0.086   0.139  -0.046
    1UNL     O9   28   0.185   0.034  -0.039
    1UNL    C20   29   0.184  -0.037   0.082
    1UNL    O10   30   0.227   0.039   0.191
    1UNL    C21   31   0.369   0.081   0.183
    1UNL    C22   32   0.407   0.177   0.070
    1UNL    O11   33   0.553   0.192   0.044
    1UNL    C23   34   0.610   0.121  -0.054
    1UNL    O12   35   0.540   0.073  -0.138
    1UNL    C24   36   0.756   0.079  -0.034
    1UNL    C25   37   0.782  -0.069  -0.045
    1UNL    O13   38   0.718  -0.148   0.020
    1UNL    O14   39   0.870  -0.098  -0.139
    1UNL    C26   40   0.457  -0.039   0.203
    1UNL    O15   41   0.437  -0.105   0.327
    1UNL    C27   42   0.419  -0.135   0.082
    1UNL    O16   43   0.496  -0.256   0.096
    1UNL    C28   44   0.273  -0.165   0.084
    1UNL    O17   45   0.238  -0.259   0.177
    1UNL     H1   46   0.028  -0.223  -0.082
    1UNL     H2   47  -0.021  -0.390   0.003
    1UNL     H3   48  -0.041  -0.349  -0.171
    1UNL     H4   49  -0.297  -0.432  -0.026
    1UNL     H5   50  -0.513  -0.329  -0.033
    1UNL     H6   51  -0.567   0.037  -0.078
    1UNL     H7   52  -0.730  -0.088  -0.236
    1UNL     H8   53  -0.658  -0.241  -0.174
    1UNL     H9   54  -0.565  -0.121  -0.280
    1UNL    H10   55  -0.666  -0.212   0.075
    1UNL    H11   56  -0.772  -0.087   0.015
    1UNL    H12   57  -0.655  -0.059   0.131
    1UNL    H13   58  -0.339   0.055  -0.055
    1UNL    H14   59  -0.098   0.079   0.082
    1UNL    H15   60  -0.069   0.314   0.012
    1UNL    H16   61  -0.308   0.346  -0.169
    1UNL    H17   62  -0.223   0.503  -0.106
    1UNL    H18   63  -0.463   0.359   0.225
    1UNL    H19   64  -0.590   0.305   0.130
    1UNL    H20   65  -0.389   0.037   0.324
    1UNL    H21   66   0.044   0.422  -0.155
    1UNL    H22   67  -0.071   0.271  -0.354
    1UNL    H23   68   0.193   0.236  -0.201
    1UNL    H24   69   0.003   0.049  -0.242
    1UNL    H25   70   0.112   0.200   0.040
    1UNL    H26   71   0.086  -0.075   0.099
    1UNL    H27   72   0.380   0.141   0.271
    1UNL    H28   73   0.367   0.132  -0.026
    1UNL    H29   74   0.368   0.274   0.081
    1UNL    H30   75   0.816   0.125  -0.116
    1UNL    H31   76   0.792   0.118   0.060
    1UNL    H32   77   0.897  -0.193  -0.129
    1UNL    H33   78   0.566  -0.021   0.209
    1UNL    H34   79   0.353  -0.155   0.317
    1UNL    H35   80   0.446  -0.094  -0.017
    1UNL    H36   81   0.579  -0.243   0.057
    1UNL    H37   82   0.240  -0.192  -0.014
    1UNL    H38   83   0.300  -0.332   0.172
   0.00000   0.00000   0.00000   0.00000   0.00000   0.00000   0.00000   0.00000   0.00000
Generated with MDTraj, t= 72.0
 83
    1UNL     C1    1  -0.076  -0.348  -0.050
    1UNL     C2    2  -0.204  -0.278  -0.075
    1UNL     C3    3  -0.328  -0.344  -0.078
    1UNL     C4    4  -0.446  -0.270  -0.082
    1UNL     C5    5  -0.436  -0.134  -0.070
    1UNL     C6    6  -0.564  -0.050  -0.066
    1UNL     C7    7  -0.643  -0.049  -0.200
    1UNL     C8    8  -0.649  -0.095   0.050
    1UNL     C9    9  -0.318  -0.070  -0.081
    1UNL    C10   10  -0.200  -0.137  -0.076
    1UNL     O1   11  -0.070  -0.079  -0.069
    1UNL    C11   12  -0.071   0.053  -0.011
    1UNL     O2   13  -0.175   0.156  -0.055
    1UNL    C12   14  -0.134   0.293  -0.064
    1UNL    C13   15  -0.258   0.379  -0.103
    1UNL     O3   16  -0.330   0.395   0.017
    1UNL    C14   17  -0.423   0.301   0.041
    1UNL     O4   18  -0.455   0.226  -0.047
    1UNL    C15   19  -0.495   0.302   0.175
    1UNL    C16   20  -0.473   0.167   0.241
    1UNL     O5   21  -0.568   0.093   0.254
    1UNL     O6   22  -0.347   0.133   0.263
    1UNL    C17   23  -0.025   0.313  -0.172
    1UNL     O7   24  -0.086   0.334  -0.305
    1UNL    C18   25   0.071   0.190  -0.177
    1UNL     O8   26   0.029   0.108  -0.284
    1UNL    C19   27   0.072   0.120  -0.042
    1UNL     O9   28   0.177   0.023  -0.054
    1UNL    C20   29   0.186  -0.044   0.067
    1UNL    O10   30   0.226   0.046   0.172
    1UNL    C21   31   0.365   0.093   0.161
    1UNL    C22   32   0.416   0.172   0.044
    1UNL    O11   33   0.559   0.184   0.043
    1UNL    C23   34   0.626   0.108  -0.049
    1UNL    O12   35   0.573   0.039  -0.132
    1UNL    C24   36   0.773   0.101  -0.045
    1UNL    C25   37   0.812  -0.039  -0.015
    1UNL    O13   38   0.774  -0.109   0.078
    1UNL    O14   39   0.912  -0.081  -0.093
    1UNL    C26   40   0.446  -0.035   0.177
    1UNL    O15   41   0.430  -0.089   0.298
    1UNL    C27   42   0.418  -0.138   0.064
    1UNL    O16   43   0.508  -0.252   0.087
    1UNL    C28   44   0.271  -0.175   0.062
    1UNL    O17   45   0.242  -0.258   0.170
    1UNL     H1   46   0.000  -0.300  -0.107
    1UNL     H2   47  -0.044  -0.356   0.064
    1UNL     H3   48  -0.074  -0.447  -0.099
    1UNL     H4   49  -0.336  -0.451  -0.086
    1UNL     H5   50  -0.541  -0.319  -0.061
    1UNL     H6   51  -0.535   0.055  -0.038
    1UNL     H7   52  -0.738   0.006  -0.197
    1UNL     H8   53  -0.663  -0.154  -0.238
    1UNL     H9   54  -0.583   0.018  -0.265
    1UNL    H10   55  -0.677  -0.199   0.041
    1UNL    H11   56  -0.734  -0.033   0.057
    1UNL    H12   57  -0.593  -0.090   0.138
    1UNL    H13   58  -0.314   0.033  -0.086
    1UNL    H14   59  -0.086   0.040   0.093
    1UNL    H15   60  -0.093   0.332   0.028
    1UNL    H16   61  -0.321   0.332  -0.176
    1UNL    H17   62  -0.221   0.486  -0.129
    1UNL    H18   63  -0.465   0.384   0.240
    1UNL    H19   64  -0.600   0.317   0.169
    1UNL    H20   65  -0.343   0.043   0.295
    1UNL    H21   66   0.029   0.407  -0.150
    1UNL    H22   67  -0.091   0.242  -0.349
    1UNL    H23   68   0.166   0.227  -0.203
    1UNL    H24   69   0.060   0.019  -0.265
    1UNL    H25   70   0.097   0.191   0.035
    1UNL    H26   71   0.091  -0.083   0.102
    1UNL    H27   72   0.379   0.164   0.242
    1UNL    H28   73   0.387   0.124  -0.054
    1UNL    H29   74   0.372   0.267   0.041
    1UNL    H30   75   0.814   0.135  -0.139
    1UNL    H31   76   0.810   0.167   0.037
    1UNL    H32   77   0.960  -0.161  -0.059
    1UNL    H33   78   0.551  -0.007   0.182
    1UNL    H34   79   0.334  -0.082   0.322
    1UNL    H35   80   0.458  -0.098  -0.027
    1UNL    H36   81   0.609  -0.227   0.069
    1UNL    H37   82   0.249  -0.220  -0.033
    1UNL    H38   83   0.312  -0.331   0.173
   0.00000   0.00000   0.00000   0.00000   0.00000   0.00000   0.00000   0.00000   0.00000
Generated with MDTraj, t= 73.0
 83
    1UNL     C1    1  -0.085  -0.361  -0.068
    1UNL     C2    2  -0.219  -0.284  -0.073
    1UNL     C3    3  -0.345  -0.344  -0.099
    1UNL     C4    4  -0.456  -0.258  -0.099
    1UNL     C5    5  -0.448  -0.118  -0.079
    1UNL     C6    6  -0.565  -0.028  -0.063
    1UNL     C7    7  -0.639   0.007  -0.193
    1UNL     C8    8  -0.664  -0.084   0.052
    1UNL     C9    9  -0.327  -0.066  -0.058
    1UNL    C10   10  -0.214  -0.142  -0.062
    1UNL     O1   11  -0.084  -0.085  -0.058
    1UNL    C11   12  -0.066   0.051  -0.028
    1UNL     O2   13  -0.168   0.148  -0.067
    1UNL    C12   14  -0.130   0.286  -0.075
    1UNL    C13   15  -0.260   0.369  -0.085
    1UNL     O3   16  -0.326   0.373   0.047
    1UNL    C14   17  -0.449   0.315   0.049
    1UNL     O4   18  -0.519   0.273  -0.044
    1UNL    C15   19  -0.505   0.296   0.179
    1UNL    C16   20  -0.466   0.169   0.243
    1UNL     O5   21  -0.543   0.074   0.260
    1UNL     O6   22  -0.335   0.160   0.280
    1UNL    C17   23  -0.031   0.298  -0.192
    1UNL     O7   24  -0.093   0.313  -0.319
    1UNL    C18   25   0.063   0.176  -0.201
    1UNL     O8   26   0.005   0.081  -0.289
    1UNL    C19   27   0.078   0.112  -0.062
    1UNL     O9   28   0.183   0.009  -0.062
    1UNL    C20   29   0.204  -0.052   0.059
    1UNL    O10   30   0.242   0.045   0.159
    1UNL    C21   31   0.380   0.086   0.150
    1UNL    C22   32   0.411   0.163   0.027
    1UNL    O11   33   0.545   0.189   0.020
    1UNL    C23   34   0.620   0.097  -0.052
    1UNL    O12   35   0.571   0.018  -0.128
    1UNL    C24   36   0.768   0.106  -0.046
    1UNL    C25   37   0.823  -0.015   0.026
    1UNL    O13   38   0.767  -0.079   0.116
    1UNL    O14   39   0.943  -0.042  -0.040
    1UNL    C26   40   0.472  -0.043   0.173
    1UNL    O15   41   0.426  -0.096   0.289
    1UNL    C27   42   0.448  -0.147   0.061
    1UNL    O16   43   0.536  -0.259   0.090
    1UNL    C28   44   0.296  -0.183   0.051
    1UNL    O17   45   0.268  -0.267   0.161
    1UNL     H1   46  -0.049  -0.347  -0.168
    1UNL     H2   47  -0.010  -0.317   0.005
    1UNL     H3   48  -0.090  -0.474  -0.070
    1UNL     H4   49  -0.357  -0.453  -0.094
    1UNL     H5   50  -0.552  -0.308  -0.103
    1UNL     H6   51  -0.521   0.068  -0.024
    1UNL     H7   52  -0.699   0.097  -0.174
    1UNL     H8   53  -0.709  -0.079  -0.222
    1UNL     H9   54  -0.568   0.042  -0.267
    1UNL    H10   55  -0.728  -0.161   0.015
    1UNL    H11   56  -0.719  -0.010   0.100
    1UNL    H12   57  -0.601  -0.136   0.120
    1UNL    H13   58  -0.310   0.034  -0.044
    1UNL    H14   59  -0.064   0.049   0.076
    1UNL    H15   60  -0.087   0.313   0.022
    1UNL    H16   61  -0.325   0.318  -0.154
    1UNL    H17   62  -0.240   0.480  -0.115
    1UNL    H18   63  -0.476   0.370   0.253
    1UNL    H19   64  -0.610   0.309   0.173
    1UNL    H20   65  -0.323   0.077   0.331
    1UNL    H21   66   0.028   0.388  -0.159
    1UNL    H22   67  -0.137   0.227  -0.338
    1UNL    H23   68   0.160   0.202  -0.242
    1UNL    H24   69  -0.052   0.030  -0.225
    1UNL    H25   70   0.108   0.186   0.010
    1UNL    H26   71   0.112  -0.097   0.102
    1UNL    H27   72   0.401   0.156   0.233
    1UNL    H28   73   0.381   0.107  -0.067
    1UNL    H29   74   0.364   0.255   0.023
    1UNL    H30   75   0.812   0.098  -0.141
    1UNL    H31   76   0.806   0.205  -0.004
    1UNL    H32   77   0.971  -0.134  -0.018
    1UNL    H33   78   0.572  -0.022   0.203
    1UNL    H34   79   0.329  -0.103   0.287
    1UNL    H35   80   0.485  -0.103  -0.030
    1UNL    H36   81   0.627  -0.232   0.107
    1UNL    H37   82   0.275  -0.236  -0.045
    1UNL    H38   83   0.346  -0.310   0.197
   0.00000   0.00000   0.00000   0.00000   0.00000   0.00000   0.00000   0.00000   0.00000
Generated with MDTraj, t= 74.0
 83
    1UNL     C1    1  -0.112  -0.344  -0.130
    1UNL     C2    2  -0.231  -0.259  -0.097
    1UNL     C3    3  -0.361  -0.306  -0.106
    1UNL     C4    4  -0.470  -0.227  -0.079
    1UNL     C5    5  -0.454  -0.099  -0.033
    1UNL     C6    6  -0.577  -0.010  -0.039
    1UNL     C7    7  -0.618   0.009  -0.188
    1UNL     C8    8  -0.690  -0.069   0.043
    1UNL     C9    9  -0.326  -0.053  -0.018
    1UNL    C10   10  -0.211  -0.128  -0.044
    1UNL     O1   11  -0.073  -0.097  -0.038
    1UNL    C11   12  -0.045   0.041  -0.016
    1UNL     O2   13  -0.150   0.129  -0.065
    1UNL    C12   14  -0.113   0.265  -0.078
    1UNL    C13   15  -0.243   0.344  -0.083
    1UNL     O3   16  -0.310   0.333   0.049
    1UNL    C14   17  -0.443   0.309   0.046
    1UNL     O4   18  -0.512   0.301  -0.059
    1UNL    C15   19  -0.507   0.287   0.179
    1UNL    C16   20  -0.454   0.163   0.248
    1UNL     O5   21  -0.516   0.058   0.233
    1UNL     O6   22  -0.341   0.174   0.316
    1UNL    C17   23  -0.021   0.272  -0.200
    1UNL     O7   24  -0.116   0.295  -0.308
    1UNL    C18   25   0.065   0.145  -0.214
    1UNL     O8   26  -0.013   0.058  -0.300
    1UNL    C19   27   0.091   0.089  -0.079
    1UNL     O9   28   0.180  -0.022  -0.080
    1UNL    C20   29   0.198  -0.072   0.048
    1UNL    O10   30   0.224   0.036   0.143
    1UNL    C21   31   0.364   0.086   0.142
    1UNL    C22   32   0.413   0.152   0.020
    1UNL    O11   33   0.550   0.186   0.025
    1UNL    C23   34   0.624   0.121  -0.066
    1UNL    O12   35   0.584   0.057  -0.160
    1UNL    C24   36   0.773   0.118  -0.048
    1UNL    C25   37   0.814   0.002   0.040
    1UNL    O13   38   0.736  -0.075   0.088
    1UNL    O14   39   0.942  -0.009   0.049
    1UNL    C26   40   0.469  -0.029   0.173
    1UNL    O15   41   0.452  -0.087   0.298
    1UNL    C27   42   0.449  -0.141   0.060
    1UNL    O16   43   0.531  -0.253   0.090
    1UNL    C28   44   0.300  -0.194   0.048
    1UNL    O17   45   0.266  -0.276   0.150
    1UNL     H1   46  -0.137  -0.388  -0.229
    1UNL     H2   47  -0.032  -0.274  -0.138
    1UNL     H3   48  -0.094  -0.431  -0.057
    1UNL     H4   49  -0.389  -0.407  -0.123
    1UNL     H5   50  -0.571  -0.260  -0.090
    1UNL     H6   51  -0.562   0.094   0.001
    1UNL     H7   52  -0.709   0.073  -0.199
    1UNL     H8   53  -0.637  -0.088  -0.242
    1UNL     H9   54  -0.545   0.076  -0.231
    1UNL    H10   55  -0.692  -0.174   0.039
    1UNL    H11   56  -0.782  -0.036   0.008
    1UNL    H12   57  -0.680  -0.052   0.149
    1UNL    H13   58  -0.312   0.046   0.039
    1UNL    H14   59  -0.048   0.042   0.089
    1UNL    H15   60  -0.061   0.284   0.017
    1UNL    H16   61  -0.307   0.308  -0.161
    1UNL    H17   62  -0.214   0.455  -0.102
    1UNL    H18   63  -0.486   0.374   0.239
    1UNL    H19   64  -0.615   0.285   0.188
    1UNL    H20   65  -0.313   0.087   0.355
    1UNL    H21   66   0.049   0.360  -0.191
    1UNL    H22   67  -0.144   0.205  -0.331
    1UNL    H23   68   0.152   0.165  -0.277
    1UNL    H24   69  -0.043  -0.022  -0.250
    1UNL    H25   70   0.122   0.169  -0.013
    1UNL    H26   71   0.106  -0.124   0.085
    1UNL    H27   72   0.363   0.155   0.229
    1UNL    H28   73   0.396   0.079  -0.066
    1UNL    H29   74   0.358   0.238   0.003
    1UNL    H30   75   0.815   0.104  -0.143
    1UNL    H31   76   0.827   0.207  -0.005
    1UNL    H32   77   0.968  -0.077   0.111
    1UNL    H33   78   0.569   0.010   0.173
    1UNL    H34   79   0.389  -0.163   0.277
    1UNL    H35   80   0.482  -0.104  -0.035
    1UNL    H36   81   0.623  -0.230   0.128
    1UNL    H37   82   0.286  -0.242  -0.055
    1UNL    H38   83   0.331  -0.348   0.175
   0.00000   0.00000   0.00000   0.00000   0.00000   0.00000   0.00000   0.00000   0.00000
Generated with MDTraj, t= 75.0
 83
    1UNL     C1    1  -0.117  -0.349  -0.153
    1UNL     C2    2  -0.231  -0.262  -0.113
    1UNL     C3    3  -0.360  -0.310  -0.130
    1UNL     C4    4  -0.470  -0.235  -0.093
    1UNL     C5    5  -0.452  -0.109  -0.040
    1UNL     C6    6  -0.560  -0.007  -0.032
    1UNL     C7    7  -0.598   0.056  -0.166
    1UNL     C8    8  -0.686  -0.038   0.048
    1UNL     C9    9  -0.319  -0.065  -0.017
    1UNL    C10   10  -0.211  -0.137  -0.054
    1UNL     O1   11  -0.081  -0.102  -0.026
    1UNL    C11   12  -0.056   0.036  -0.006
    1UNL     O2   13  -0.160   0.125  -0.051
    1UNL    C12   14  -0.114   0.261  -0.078
    1UNL    C13   15  -0.229   0.359  -0.079
    1UNL     O3   16  -0.286   0.366   0.047
    1UNL    C14   17  -0.412   0.312   0.050
    1UNL     O4   18  -0.469   0.274  -0.055
    1UNL    C15   19  -0.482   0.294   0.177
    1UNL    C16   20  -0.442   0.171   0.253
    1UNL     O5   21  -0.478   0.057   0.221
    1UNL     O6   22  -0.368   0.197   0.364
    1UNL    C17   23  -0.037   0.254  -0.215
    1UNL     O7   24  -0.129   0.272  -0.328
    1UNL    C18   25   0.042   0.122  -0.221
    1UNL     O8   26  -0.033   0.015  -0.288
    1UNL    C19   27   0.084   0.075  -0.082
    1UNL     O9   28   0.170  -0.035  -0.095
    1UNL    C20   29   0.195  -0.075   0.040
    1UNL    O10   30   0.229   0.022   0.144
    1UNL    C21   31   0.361   0.077   0.137
    1UNL    C22   32   0.401   0.159   0.013
    1UNL    O11   33   0.537   0.198   0.027
    1UNL    C23   34   0.619   0.131  -0.062
    1UNL    O12   35   0.566   0.081  -0.157
    1UNL    C24   36   0.763   0.114  -0.059
    1UNL    C25   37   0.812   0.015   0.042
    1UNL    O13   38   0.756  -0.091   0.065
    1UNL    O14   39   0.924   0.065   0.110
    1UNL    C26   40   0.457  -0.047   0.171
    1UNL    O15   41   0.421  -0.111   0.294
    1UNL    C27   42   0.449  -0.146   0.056
    1UNL    O16   43   0.534  -0.255   0.082
    1UNL    C28   44   0.296  -0.192   0.049
    1UNL    O17   45   0.276  -0.277   0.155
    1UNL     H1   46  -0.151  -0.454  -0.189
    1UNL     H2   47  -0.080  -0.298  -0.237
    1UNL     H3   48  -0.035  -0.370  -0.079
    1UNL     H4   49  -0.367  -0.412  -0.172
    1UNL     H5   50  -0.569  -0.280  -0.094
    1UNL     H6   51  -0.517   0.078   0.029
    1UNL     H7   52  -0.655   0.152  -0.169
    1UNL     H8   53  -0.655  -0.014  -0.227
    1UNL     H9   54  -0.509   0.091  -0.219
    1UNL    H10   55  -0.761  -0.089  -0.002
    1UNL    H11   56  -0.732   0.051   0.084
    1UNL    H12   57  -0.666  -0.105   0.129
    1UNL    H13   58  -0.292   0.028   0.021
    1UNL    H14   59  -0.055   0.029   0.101
    1UNL    H15   60  -0.044   0.277   0.009
    1UNL    H16   61  -0.304   0.330  -0.148
    1UNL    H17   62  -0.189   0.463  -0.110
    1UNL    H18   63  -0.475   0.383   0.235
    1UNL    H19   64  -0.588   0.287   0.157
    1UNL    H20   65  -0.341   0.110   0.407
    1UNL    H21   66   0.035   0.341  -0.218
    1UNL    H22   67  -0.083   0.241  -0.416
    1UNL    H23   68   0.141   0.134  -0.270
    1UNL    H24   69  -0.083  -0.028  -0.217
    1UNL    H25   70   0.139   0.155  -0.031
    1UNL    H26   71   0.102  -0.121   0.088
    1UNL    H27   72   0.365   0.146   0.225
    1UNL    H28   73   0.394   0.087  -0.075
    1UNL    H29   74   0.349   0.246   0.001
    1UNL    H30   75   0.791   0.066  -0.152
    1UNL    H31   76   0.809   0.213  -0.052
    1UNL    H32   77   0.931   0.016   0.192
    1UNL    H33   78   0.559  -0.014   0.186
    1UNL    H34   79   0.348  -0.170   0.265
    1UNL    H35   80   0.489  -0.099  -0.032
    1UNL    H36   81   0.617  -0.217   0.100
    1UNL    H37   82   0.300  -0.249  -0.050
    1UNL    H38   83   0.322  -0.362   0.148
   0.00000   0.00000   0.00000   0.00000   0.00000   0.00000   0.00000   0.00000   0.00000
Generated with MDTraj, t= 76.0
 83
    1UNL     C1    1  -0.127  -0.374  -0.130
    1UNL     C2    2  -0.229  -0.268  -0.115
    1UNL     C3    3  -0.360  -0.297  -0.162
    1UNL     C4    4  -0.466  -0.209  -0.142
    1UNL     C5    5  -0.450  -0.094  -0.071
    1UNL     C6    6  -0.575  -0.009  -0.048
    1UNL     C7    7  -0.628   0.063  -0.170
    1UNL     C8    8  -0.684  -0.096   0.022
    1UNL     C9    9  -0.323  -0.063  -0.029
    1UNL    C10   10  -0.210  -0.142  -0.060
    1UNL     O1   11  -0.077  -0.096  -0.036
    1UNL    C11   12  -0.051   0.042  -0.008
    1UNL     O2   13  -0.155   0.130  -0.045
    1UNL    C12   14  -0.114   0.257  -0.093
    1UNL    C13   15  -0.227   0.354  -0.089
    1UNL     O3   16  -0.268   0.380   0.037
    1UNL    C14   17  -0.383   0.318   0.062
    1UNL     O4   18  -0.443   0.243  -0.010
    1UNL    C15   19  -0.437   0.336   0.205
    1UNL    C16   20  -0.415   0.209   0.279
    1UNL     O5   21  -0.427   0.101   0.228
    1UNL     O6   22  -0.377   0.229   0.409
    1UNL    C17   23  -0.043   0.242  -0.231
    1UNL     O7   24  -0.143   0.246  -0.330
    1UNL    C18   25   0.046   0.113  -0.228
    1UNL     O8   26  -0.032   0.005  -0.283
    1UNL    C19   27   0.089   0.076  -0.088
    1UNL     O9   28   0.183  -0.030  -0.092
    1UNL    C20   29   0.193  -0.090   0.039
    1UNL    O10   30   0.214  -0.006   0.145
    1UNL    C21   31   0.345   0.056   0.158
    1UNL    C22   32   0.395   0.135   0.038
    1UNL    O11   33   0.531   0.173   0.045
    1UNL    C23   34   0.594   0.116  -0.059
    1UNL    O12   35   0.545   0.046  -0.145
    1UNL    C24   36   0.748   0.122  -0.072
    1UNL    C25   37   0.795   0.049   0.048
    1UNL    O13   38   0.793  -0.071   0.053
    1UNL    O14   39   0.840   0.130   0.141
    1UNL    C26   40   0.451  -0.055   0.170
    1UNL    O15   41   0.428  -0.121   0.294
    1UNL    C27   42   0.449  -0.141   0.040
    1UNL    O16   43   0.542  -0.245   0.053
    1UNL    C28   44   0.303  -0.201   0.043
    1UNL    O17   45   0.289  -0.291   0.148
    1UNL     H1   46  -0.124  -0.470  -0.065
    1UNL     H2   47  -0.127  -0.406  -0.234
    1UNL     H3   48  -0.029  -0.327  -0.117
    1UNL     H4   49  -0.392  -0.387  -0.208
    1UNL     H5   50  -0.564  -0.237  -0.173
    1UNL     H6   51  -0.553   0.074   0.025
    1UNL     H7   52  -0.715   0.128  -0.150
    1UNL     H8   53  -0.669  -0.010  -0.235
    1UNL     H9   54  -0.563   0.134  -0.225
    1UNL    H10   55  -0.716  -0.185  -0.025
    1UNL    H11   56  -0.771  -0.036   0.039
    1UNL    H12   57  -0.648  -0.128   0.115
    1UNL    H13   58  -0.317   0.026   0.033
    1UNL    H14   59  -0.025   0.044   0.097
    1UNL    H15   60  -0.039   0.288  -0.014
    1UNL    H16   61  -0.304   0.307  -0.144
    1UNL    H17   62  -0.206   0.454  -0.139
    1UNL    H18   63  -0.386   0.411   0.260
    1UNL    H19   64  -0.540   0.371   0.205
    1UNL    H20   65  -0.363   0.140   0.451
    1UNL    H21   66   0.006   0.340  -0.254
    1UNL    H22   67  -0.164   0.158  -0.360
    1UNL    H23   68   0.138   0.125  -0.292
    1UNL    H24   69  -0.071  -0.036  -0.202
    1UNL    H25   70   0.141   0.168  -0.052
    1UNL    H26   71   0.095  -0.140   0.066
    1UNL    H27   72   0.332   0.118   0.249
    1UNL    H28   73   0.383   0.063  -0.049
    1UNL    H29   74   0.335   0.216   0.024
    1UNL    H30   75   0.772   0.082  -0.175
    1UNL    H31   76   0.784   0.220  -0.064
    1UNL    H32   77   0.872   0.063   0.207
    1UNL    H33   78   0.555  -0.014   0.179
    1UNL    H34   79   0.361  -0.187   0.275
    1UNL    H35   80   0.458  -0.089  -0.054
    1UNL    H36   81   0.637  -0.208   0.039
    1UNL    H37   82   0.285  -0.249  -0.057
    1UNL    H38   83   0.358  -0.362   0.149
   0.00000   0.00000   0.00000   0.00000   0.00000   0.00000   0.00000   0.00000   0.00000
Generated with MDTraj, t= 77.0
 83
    1UNL     C1    1  -0.101  -0.333  -0.135
    1UNL     C2    2  -0.223  -0.246  -0.130
    1UNL     C3    3  -0.342  -0.294  -0.175
    1UNL     C4    4  -0.459  -0.217  -0.163
    1UNL     C5    5  -0.455  -0.094  -0.090
    1UNL     C6    6  -0.577  -0.020  -0.049
    1UNL     C7    7  -0.645   0.064  -0.163
    1UNL     C8    8  -0.676  -0.108   0.025
    1UNL     C9    9  -0.334  -0.052  -0.045
    1UNL    C10   10  -0.217  -0.123  -0.060
    1UNL     O1   11  -0.082  -0.098  -0.020
    1UNL    C11   12  -0.047   0.039  -0.006
    1UNL     O2   13  -0.149   0.134  -0.043
    1UNL    C12   14  -0.102   0.257  -0.101
    1UNL    C13   15  -0.220   0.357  -0.100
    1UNL     O3   16  -0.252   0.391   0.026
    1UNL    C14   17  -0.370   0.327   0.070
    1UNL     O4   18  -0.442   0.266   0.002
    1UNL    C15   19  -0.398   0.345   0.213
    1UNL    C16   20  -0.390   0.222   0.304
    1UNL     O5   21  -0.398   0.111   0.263
    1UNL     O6   22  -0.383   0.254   0.436
    1UNL    C17   23  -0.031   0.226  -0.238
    1UNL     O7   24  -0.132   0.212  -0.331
    1UNL    C18   25   0.061   0.096  -0.232
    1UNL     O8   26   0.008  -0.018  -0.299
    1UNL    C19   27   0.084   0.061  -0.090
    1UNL     O9   28   0.160  -0.058  -0.075
    1UNL    C20   29   0.202  -0.111   0.050
    1UNL    O10   30   0.228  -0.022   0.151
    1UNL    C21   31   0.348   0.049   0.149
    1UNL    C22   32   0.362   0.147   0.029
    1UNL    O11   33   0.492   0.193   0.029
    1UNL    C23   34   0.563   0.126  -0.068
    1UNL    O12   35   0.499   0.064  -0.151
    1UNL    C24   36   0.716   0.125  -0.065
    1UNL    C25   37   0.760   0.060   0.060
    1UNL    O13   38   0.774  -0.062   0.070
    1UNL    O14   39   0.778   0.150   0.166
    1UNL    C26   40   0.455  -0.060   0.159
    1UNL    O15   41   0.436  -0.126   0.287
    1UNL    C27   42   0.461  -0.153   0.035
    1UNL    O16   43   0.546  -0.262   0.060
    1UNL    C28   44   0.319  -0.218   0.026
    1UNL    O17   45   0.300  -0.324   0.118
    1UNL     H1   46  -0.045  -0.369  -0.047
    1UNL     H2   47  -0.117  -0.423  -0.204
    1UNL     H3   48  -0.024  -0.272  -0.183
    1UNL     H4   49  -0.352  -0.397  -0.213
    1UNL     H5   50  -0.554  -0.257  -0.197
    1UNL     H6   51  -0.544   0.056   0.025
    1UNL     H7   52  -0.736   0.119  -0.139
    1UNL     H8   53  -0.665  -0.006  -0.241
    1UNL     H9   54  -0.573   0.141  -0.194
    1UNL    H10   55  -0.709  -0.184  -0.045
    1UNL    H11   56  -0.760  -0.047   0.055
    1UNL    H12   57  -0.628  -0.158   0.102
    1UNL    H13   58  -0.323   0.031   0.028
    1UNL    H14   59  -0.034   0.051   0.105
    1UNL    H15   60  -0.019   0.302  -0.040
    1UNL    H16   61  -0.300   0.310  -0.146
    1UNL    H17   62  -0.201   0.451  -0.161
    1UNL    H18   63  -0.324   0.415   0.241
    1UNL    H19   64  -0.493   0.394   0.229
    1UNL    H20   65  -0.391   0.167   0.483
    1UNL    H21   66   0.031   0.308  -0.276
    1UNL    H22   67  -0.112   0.128  -0.385
    1UNL    H23   68   0.166   0.101  -0.279
    1UNL    H24   69  -0.060  -0.055  -0.238
    1UNL    H25   70   0.128   0.148  -0.036
    1UNL    H26   71   0.124  -0.175   0.100
    1UNL    H27   72   0.347   0.115   0.236
    1UNL    H28   73   0.321   0.094  -0.063
    1UNL    H29   74   0.302   0.229   0.040
    1UNL    H30   75   0.750   0.067  -0.156
    1UNL    H31   76   0.743   0.224  -0.078
    1UNL    H32   77   0.821   0.096   0.237
    1UNL    H33   78   0.559  -0.014   0.170
    1UNL    H34   79   0.364  -0.194   0.272
    1UNL    H35   80   0.485  -0.107  -0.060
    1UNL    H36   81   0.630  -0.222   0.102
    1UNL    H37   82   0.317  -0.256  -0.076
    1UNL    H38   83   0.369  -0.392   0.102
   0.00000   0.00000   0.00000   0.00000   0.00000   0.00000   0.00000   0.00000   0.00000
Generated with MDTraj, t= 78.0
 83
    1UNL     C1    1  -0.109  -0.329  -0.186
    1UNL     C2    2  -0.227  -0.251  -0.143
    1UNL     C3    3  -0.353  -0.279  -0.200
    1UNL     C4    4  -0.459  -0.203  -0.159
    1UNL     C5    5  -0.440  -0.105  -0.059
    1UNL     C6    6  -0.555  -0.006  -0.033
    1UNL     C7    7  -0.605   0.059  -0.166
    1UNL     C8    8  -0.667  -0.077   0.044
    1UNL     C9    9  -0.319  -0.078  -0.002
    1UNL    C10   10  -0.205  -0.139  -0.056
    1UNL     O1   11  -0.075  -0.111  -0.021
    1UNL    C11   12  -0.040   0.027  -0.005
    1UNL     O2   13  -0.143   0.116  -0.047
    1UNL    C12   14  -0.093   0.246  -0.089
    1UNL    C13   15  -0.208   0.342  -0.099
    1UNL     O3   16  -0.249   0.399   0.021
    1UNL    C14   17  -0.360   0.327   0.069
    1UNL     O4   18  -0.419   0.252   0.001
    1UNL    C15   19  -0.406   0.359   0.210
    1UNL    C16   20  -0.383   0.233   0.296
    1UNL     O5   21  -0.374   0.122   0.245
    1UNL     O6   22  -0.376   0.260   0.429
    1UNL    C17   23  -0.031   0.218  -0.235
    1UNL     O7   24  -0.133   0.206  -0.332
    1UNL    C18   25   0.052   0.080  -0.236
    1UNL     O8   26  -0.022  -0.034  -0.290
    1UNL    C19   27   0.098   0.054  -0.087
    1UNL     O9   28   0.195  -0.044  -0.081
    1UNL    C20   29   0.200  -0.112   0.038
    1UNL    O10   30   0.210  -0.031   0.154
    1UNL    C21   31   0.333   0.036   0.155
    1UNL    C22   32   0.354   0.130   0.036
    1UNL    O11   33   0.484   0.174   0.036
    1UNL    C23   34   0.551   0.135  -0.077
    1UNL    O12   35   0.497   0.086  -0.175
    1UNL    C24   36   0.700   0.148  -0.054
    1UNL    C25   37   0.733   0.079   0.073
    1UNL    O13   38   0.743  -0.041   0.072
    1UNL    O14   39   0.757   0.149   0.183
    1UNL    C26   40   0.455  -0.062   0.161
    1UNL    O15   41   0.433  -0.130   0.284
    1UNL    C27   42   0.454  -0.153   0.035
    1UNL    O16   43   0.546  -0.260   0.037
    1UNL    C28   44   0.312  -0.220   0.027
    1UNL    O17   45   0.287  -0.308   0.136
    1UNL     H1   46  -0.019  -0.293  -0.145
    1UNL     H2   47  -0.125  -0.445  -0.178
    1UNL     H3   48  -0.101  -0.291  -0.291
    1UNL     H4   49  -0.369  -0.351  -0.277
    1UNL     H5   50  -0.557  -0.226  -0.200
    1UNL     H6   51  -0.521   0.077   0.029
    1UNL     H7   52  -0.683   0.129  -0.146
    1UNL     H8   53  -0.640  -0.021  -0.229
    1UNL     H9   54  -0.520   0.118  -0.205
    1UNL    H10   55  -0.716  -0.142  -0.028
    1UNL    H11   56  -0.739  -0.013   0.088
    1UNL    H12   57  -0.623  -0.145   0.114
    1UNL    H13   58  -0.303   0.001   0.063
    1UNL    H14   59  -0.022   0.045   0.105
    1UNL    H15   60  -0.021   0.294  -0.019
    1UNL    H16   61  -0.289   0.294  -0.143
    1UNL    H17   62  -0.184   0.423  -0.175
    1UNL    H18   63  -0.349   0.435   0.256
    1UNL    H19   64  -0.510   0.390   0.206
    1UNL    H20   65  -0.364   0.174   0.470
    1UNL    H21   66   0.023   0.309  -0.256
    1UNL    H22   67  -0.176   0.118  -0.312
    1UNL    H23   68   0.141   0.094  -0.309
    1UNL    H24   69  -0.054  -0.085  -0.214
    1UNL    H25   70   0.129   0.151  -0.050
    1UNL    H26   71   0.106  -0.164   0.058
    1UNL    H27   72   0.332   0.100   0.243
    1UNL    H28   73   0.328   0.075  -0.062
    1UNL    H29   74   0.282   0.204   0.040
    1UNL    H30   75   0.753   0.095  -0.135
    1UNL    H31   76   0.725   0.252  -0.063
    1UNL    H32   77   0.796   0.108   0.265
    1UNL    H33   78   0.560  -0.015   0.168
    1UNL    H34   79   0.353  -0.181   0.265
    1UNL    H35   80   0.475  -0.096  -0.056
    1UNL    H36   81   0.630  -0.206   0.063
    1UNL    H37   82   0.312  -0.269  -0.068
    1UNL    H38   83   0.366  -0.358   0.162
   0.00000   0.00000   0.00000   0.00000   0.00000   0.00000   0.00000   0.00000   0.00000
Generated with MDTraj, t= 79.0
 83
    1UNL     C1    1  -0.125  -0.330  -0.211
    1UNL     C2    2  -0.237  -0.249  -0.156
    1UNL     C3    3  -0.366  -0.277  -0.190
    1UNL     C4    4  -0.465  -0.196  -0.136
    1UNL     C5    5  -0.439  -0.093  -0.051
    1UNL     C6    6  -0.537   0.010  -0.008
    1UNL     C7    7  -0.585   0.090  -0.131
    1UNL     C8    8  -0.647  -0.056   0.079
    1UNL     C9    9  -0.312  -0.079  -0.014
    1UNL    C10   10  -0.208  -0.155  -0.062
    1UNL     O1   11  -0.076  -0.126  -0.018
    1UNL    C11   12  -0.048   0.018  -0.018
    1UNL     O2   13  -0.149   0.111  -0.057
    1UNL    C12   14  -0.097   0.237  -0.105
    1UNL    C13   15  -0.207   0.337  -0.106
    1UNL     O3   16  -0.244   0.363   0.030
    1UNL    C14   17  -0.370   0.325   0.054
    1UNL     O4   18  -0.444   0.281  -0.029
    1UNL    C15   19  -0.426   0.335   0.200
    1UNL    C16   20  -0.382   0.221   0.281
    1UNL     O5   21  -0.369   0.106   0.242
    1UNL     O6   22  -0.360   0.253   0.407
    1UNL    C17   23  -0.031   0.210  -0.245
    1UNL     O7   24  -0.141   0.210  -0.334
    1UNL    C18   25   0.041   0.073  -0.251
    1UNL     O8   26  -0.036  -0.025  -0.302
    1UNL    C19   27   0.086   0.030  -0.107
    1UNL     O9   28   0.158  -0.085  -0.103
    1UNL    C20   29   0.183  -0.128   0.032
    1UNL    O10   30   0.197  -0.022   0.141
    1UNL    C21   31   0.325   0.041   0.154
    1UNL    C22   32   0.362   0.154   0.057
    1UNL    O11   33   0.505   0.182   0.068
    1UNL    C23   34   0.564   0.158  -0.049
    1UNL    O12   35   0.506   0.126  -0.151
    1UNL    C24   36   0.713   0.164  -0.049
    1UNL    C25   37   0.765   0.088   0.064
    1UNL    O13   38   0.771  -0.035   0.065
    1UNL    O14   39   0.806   0.158   0.178
    1UNL    C26   40   0.442  -0.061   0.166
    1UNL    O15   41   0.420  -0.127   0.291
    1UNL    C27   42   0.441  -0.165   0.050
    1UNL    O16   43   0.553  -0.253   0.062
    1UNL    C28   44   0.302  -0.232   0.036
    1UNL    O17   45   0.285  -0.328   0.139
    1UNL     H1   46  -0.050  -0.258  -0.233
    1UNL     H2   47  -0.095  -0.416  -0.144
    1UNL     H3   48  -0.158  -0.364  -0.313
    1UNL     H4   49  -0.385  -0.356  -0.263
    1UNL     H5   50  -0.566  -0.226  -0.155
    1UNL     H6   51  -0.488   0.082   0.056
    1UNL     H7   52  -0.634   0.176  -0.095
    1UNL     H8   53  -0.658   0.032  -0.189
    1UNL     H9   54  -0.502   0.132  -0.188
    1UNL    H10   55  -0.683  -0.143   0.028
    1UNL    H11   56  -0.731   0.002   0.103
    1UNL    H12   57  -0.608  -0.102   0.170
    1UNL    H13   58  -0.291  -0.014   0.079
    1UNL    H14   59  -0.020   0.042   0.091
    1UNL    H15   60  -0.027   0.273  -0.028
    1UNL    H16   61  -0.282   0.302  -0.172
    1UNL    H17   62  -0.169   0.435  -0.148
    1UNL    H18   63  -0.390   0.424   0.248
    1UNL    H19   64  -0.533   0.335   0.202
    1UNL    H20   65  -0.327   0.175   0.450
    1UNL    H21   66   0.048   0.283  -0.265
    1UNL    H22   67  -0.123   0.137  -0.396
    1UNL    H23   68   0.139   0.076  -0.313
    1UNL    H24   69  -0.121  -0.023  -0.251
    1UNL    H25   70   0.143   0.110  -0.062
    1UNL    H26   71   0.090  -0.176   0.055
    1UNL    H27   72   0.316   0.088   0.252
    1UNL    H28   73   0.339   0.122  -0.053
    1UNL    H29   74   0.316   0.245   0.085
    1UNL    H30   75   0.748   0.123  -0.141
    1UNL    H31   76   0.749   0.270  -0.045
    1UNL    H32   77   0.834   0.097   0.245
    1UNL    H33   78   0.547  -0.014   0.175
    1UNL    H34   79   0.343  -0.183   0.266
    1UNL    H35   80   0.456  -0.103  -0.044
    1UNL    H36   81   0.637  -0.193   0.057
    1UNL    H37   82   0.297  -0.273  -0.064
    1UNL    H38   83   0.365  -0.387   0.154
   0.00000   0.00000   0.00000   0.00000   0.00000   0.00000   0.00000   0.00000   0.00000
Generated with MDTraj, t= 80.0
 83
    1UNL     C1    1  -0.155  -0.349  -0.188
    1UNL     C2    2  -0.260  -0.255  -0.144
    1UNL     C3    3  -0.391  -0.268  -0.177
    1UNL     C4    4  -0.492  -0.187  -0.125
    1UNL     C5    5  -0.461  -0.081  -0.043
    1UNL     C6    6  -0.574   0.014   0.010
    1UNL     C7    7  -0.659   0.079  -0.100
    1UNL     C8    8  -0.665  -0.059   0.108
    1UNL     C9    9  -0.327  -0.071  -0.010
    1UNL    C10   10  -0.221  -0.144  -0.064
    1UNL     O1   11  -0.086  -0.125  -0.042
    1UNL    C11   12  -0.038   0.007  -0.024
    1UNL     O2   13  -0.135   0.096  -0.065
    1UNL    C12   14  -0.093   0.228  -0.118
    1UNL    C13   15  -0.216   0.313  -0.104
    1UNL     O3   16  -0.247   0.316   0.034
    1UNL    C14   17  -0.380   0.331   0.054
    1UNL     O4   18  -0.460   0.348  -0.040
    1UNL    C15   19  -0.428   0.327   0.186
    1UNL    C16   20  -0.379   0.208   0.259
    1UNL     O5   21  -0.400   0.098   0.206
    1UNL     O6   22  -0.324   0.229   0.379
    1UNL    C17   23  -0.023   0.210  -0.252
    1UNL     O7   24  -0.120   0.230  -0.360
    1UNL    C18   25   0.046   0.071  -0.255
    1UNL     O8   26  -0.045  -0.022  -0.303
    1UNL    C19   27   0.095   0.031  -0.104
    1UNL     O9   28   0.203  -0.058  -0.104
    1UNL    C20   29   0.209  -0.131   0.012
    1UNL    O10   30   0.203  -0.040   0.132
    1UNL    C21   31   0.321   0.040   0.161
    1UNL    C22   32   0.356   0.141   0.051
    1UNL    O11   33   0.489   0.192   0.072
    1UNL    C23   34   0.572   0.167  -0.037
    1UNL    O12   35   0.534   0.138  -0.149
    1UNL    C24   36   0.720   0.182  -0.018
    1UNL    C25   37   0.789   0.080   0.074
    1UNL    O13   38   0.740  -0.031   0.073
    1UNL    O14   39   0.886   0.125   0.156
    1UNL    C26   40   0.436  -0.058   0.188
    1UNL    O15   41   0.396  -0.146   0.293
    1UNL    C27   42   0.462  -0.146   0.063
    1UNL    O16   43   0.579  -0.228   0.089
    1UNL    C28   44   0.335  -0.223   0.022
    1UNL    O17   45   0.316  -0.316   0.128
    1UNL     H1   46  -0.071  -0.288  -0.218
    1UNL     H2   47  -0.119  -0.424  -0.122
    1UNL     H3   48  -0.186  -0.401  -0.283
    1UNL     H4   49  -0.423  -0.351  -0.239
    1UNL     H5   50  -0.595  -0.201  -0.159
    1UNL     H6   51  -0.528   0.092   0.068
    1UNL     H7   52  -0.740   0.142  -0.077
    1UNL     H8   53  -0.702   0.003  -0.168
    1UNL     H9   54  -0.600   0.146  -0.159
    1UNL    H10   55  -0.707  -0.143   0.062
    1UNL    H11   56  -0.745  -0.001   0.149
    1UNL    H12   57  -0.608  -0.106   0.191
    1UNL    H13   58  -0.298   0.004   0.052
    1UNL    H14   59  -0.014   0.013   0.089
    1UNL    H15   60  -0.024   0.272  -0.046
    1UNL    H16   61  -0.300   0.269  -0.153
    1UNL    H17   62  -0.189   0.412  -0.152
    1UNL    H18   63  -0.399   0.419   0.235
    1UNL    H19   64  -0.534   0.315   0.174
    1UNL    H20   65  -0.310   0.147   0.426
    1UNL    H21   66   0.047   0.292  -0.273
    1UNL    H22   67  -0.184   0.151  -0.367
    1UNL    H23   68   0.132   0.075  -0.334
    1UNL    H24   69  -0.091  -0.057  -0.225
    1UNL    H25   70   0.129   0.119  -0.049
    1UNL    H26   71   0.122  -0.190   0.027
    1UNL    H27   72   0.289   0.092   0.254
    1UNL    H28   73   0.363   0.089  -0.054
    1UNL    H29   74   0.286   0.224   0.049
    1UNL    H30   75   0.761   0.184  -0.115
    1UNL    H31   76   0.741   0.285   0.027
    1UNL    H32   77   0.903   0.063   0.227
    1UNL    H33   78   0.532  -0.008   0.223
    1UNL    H34   79   0.298  -0.155   0.280
    1UNL    H35   80   0.500  -0.081  -0.024
    1UNL    H36   81   0.650  -0.164   0.099
    1UNL    H37   82   0.362  -0.279  -0.070
    1UNL    H38   83   0.404  -0.345   0.156
   0.00000   0.00000   0.00000   0.00000   0.00000   0.00000   0.00000   0.00000   0.00000
Generated with MDTraj, t= 81.0
 83
    1UNL     C1    1  -0.179  -0.378  -0.180
    1UNL     C2    2  -0.274  -0.272  -0.140
    1UNL     C3    3  -0.406  -0.297  -0.153
    1UNL     C4    4  -0.499  -0.202  -0.121
    1UNL     C5    5  -0.460  -0.087  -0.052
    1UNL     C6    6  -0.566   0.011   0.004
    1UNL     C7    7  -0.681   0.061  -0.091
    1UNL     C8    8  -0.637  -0.052   0.126
    1UNL     C9    9  -0.325  -0.062  -0.026
    1UNL    C10   10  -0.230  -0.154  -0.078
    1UNL     O1   11  -0.091  -0.138  -0.078
    1UNL    C11   12  -0.052  -0.004  -0.039
    1UNL     O2   13  -0.150   0.104  -0.067
    1UNL    C12   14  -0.093   0.234  -0.104
    1UNL    C13   15  -0.210   0.335  -0.102
    1UNL     O3   16  -0.256   0.350   0.031
    1UNL    C14   17  -0.390   0.346   0.055
    1UNL     O4   18  -0.474   0.344  -0.041
    1UNL    C15   19  -0.453   0.335   0.195
    1UNL    C16   20  -0.392   0.212   0.260
    1UNL     O5   21  -0.431   0.099   0.233
    1UNL     O6   22  -0.285   0.235   0.336
    1UNL    C17   23  -0.020   0.223  -0.244
    1UNL     O7   24  -0.110   0.226  -0.359
    1UNL    C18   25   0.058   0.087  -0.255
    1UNL     O8   26  -0.008  -0.015  -0.325
    1UNL    C19   27   0.078   0.032  -0.106
    1UNL     O9   28   0.165  -0.078  -0.104
    1UNL    C20   29   0.204  -0.130   0.016
    1UNL    O10   30   0.204  -0.038   0.121
    1UNL    C21   31   0.320   0.042   0.161
    1UNL    C22   32   0.365   0.146   0.056
    1UNL    O11   33   0.494   0.208   0.083
    1UNL    C23   34   0.587   0.172  -0.012
    1UNL    O12   35   0.570   0.110  -0.117
    1UNL    C24   36   0.726   0.216   0.015
    1UNL    C25   37   0.799   0.098   0.076
    1UNL    O13   38   0.741  -0.001   0.113
    1UNL    O14   39   0.930   0.108   0.097
    1UNL    C26   40   0.433  -0.054   0.193
    1UNL    O15   41   0.421  -0.140   0.303
    1UNL    C27   42   0.461  -0.149   0.072
    1UNL    O16   43   0.560  -0.244   0.108
    1UNL    C28   44   0.335  -0.217   0.009
    1UNL    O17   45   0.299  -0.338   0.071
    1UNL     H1   46  -0.077  -0.335  -0.170
    1UNL     H2   47  -0.175  -0.466  -0.123
    1UNL     H3   48  -0.196  -0.411  -0.282
    1UNL     H4   49  -0.446  -0.379  -0.210
    1UNL     H5   50  -0.603  -0.218  -0.129
    1UNL     H6   51  -0.515   0.101   0.041
    1UNL     H7   52  -0.756   0.126  -0.050
    1UNL     H8   53  -0.736  -0.026  -0.126
    1UNL     H9   54  -0.648   0.120  -0.175
    1UNL    H10   55  -0.702  -0.131   0.100
    1UNL    H11   56  -0.691   0.022   0.183
    1UNL    H12   57  -0.561  -0.097   0.190
    1UNL    H13   58  -0.289   0.020   0.043
    1UNL    H14   59  -0.047  -0.006   0.077
    1UNL    H15   60  -0.023   0.259  -0.028
    1UNL    H16   61  -0.277   0.287  -0.172
    1UNL    H17   62  -0.177   0.433  -0.151
    1UNL    H18   63  -0.427   0.421   0.255
    1UNL    H19   64  -0.558   0.323   0.184
    1UNL    H20   65  -0.256   0.148   0.373
    1UNL    H21   66   0.053   0.304  -0.263
    1UNL    H22   67  -0.148   0.143  -0.376
    1UNL    H23   68   0.162   0.095  -0.310
    1UNL    H24   69  -0.029  -0.083  -0.255
    1UNL    H25   70   0.122   0.112  -0.044
    1UNL    H26   71   0.123  -0.195   0.053
    1UNL    H27   72   0.275   0.092   0.251
    1UNL    H28   73   0.372   0.092  -0.049
    1UNL    H29   74   0.293   0.226   0.033
    1UNL    H30   75   0.788   0.246  -0.066
    1UNL    H31   76   0.729   0.300   0.092
    1UNL    H32   77   0.957   0.020   0.135
    1UNL    H33   78   0.518   0.015   0.210
    1UNL    H34   79   0.361  -0.208   0.268
    1UNL    H35   80   0.500  -0.087  -0.016
    1UNL    H36   81   0.633  -0.189   0.142
    1UNL    H37   82   0.348  -0.229  -0.103
    1UNL    H38   83   0.380  -0.374   0.119
   0.00000   0.00000   0.00000   0.00000   0.00000   0.00000   0.00000   0.00000   0.00000
Generated with MDTraj, t= 82.0
 83
    1UNL     C1    1  -0.171  -0.389  -0.198
    1UNL     C2    2  -0.278  -0.294  -0.146
    1UNL     C3    3  -0.415  -0.323  -0.137
    1UNL     C4    4  -0.506  -0.235  -0.079
    1UNL     C5    5  -0.471  -0.105  -0.044
    1UNL     C6    6  -0.567   0.001  -0.005
    1UNL     C7    7  -0.671   0.023  -0.116
    1UNL     C8    8  -0.640  -0.035   0.124
    1UNL     C9    9  -0.334  -0.075  -0.050
    1UNL    C10   10  -0.238  -0.164  -0.103
    1UNL     O1   11  -0.098  -0.127  -0.108
    1UNL    C11   12  -0.060   0.000  -0.047
    1UNL     O2   13  -0.158   0.107  -0.082
    1UNL    C12   14  -0.103   0.240  -0.096
    1UNL    C13   15  -0.213   0.352  -0.105
    1UNL     O3   16  -0.261   0.374   0.016
    1UNL    C14   17  -0.382   0.322   0.038
    1UNL     O4   18  -0.462   0.269  -0.043
    1UNL    C15   19  -0.429   0.335   0.178
    1UNL    C16   20  -0.371   0.233   0.264
    1UNL     O5   21  -0.441   0.139   0.293
    1UNL     O6   22  -0.247   0.255   0.321
    1UNL    C17   23  -0.027   0.241  -0.229
    1UNL     O7   24  -0.118   0.240  -0.333
    1UNL    C18   25   0.066   0.113  -0.241
    1UNL     O8   26   0.004   0.018  -0.326
    1UNL    C19   27   0.083   0.045  -0.100
    1UNL     O9   28   0.184  -0.053  -0.107
    1UNL    C20   29   0.196  -0.122   0.012
    1UNL    O10   30   0.202  -0.033   0.127
    1UNL    C21   31   0.325   0.035   0.156
    1UNL    C22   32   0.346   0.154   0.058
    1UNL    O11   33   0.475   0.214   0.077
    1UNL    C23   34   0.582   0.156   0.012
    1UNL    O12   35   0.563   0.080  -0.082
    1UNL    C24   36   0.718   0.193   0.059
    1UNL    C25   37   0.812   0.082   0.104
    1UNL    O13   38   0.774  -0.002   0.182
    1UNL    O14   39   0.929   0.089   0.033
    1UNL    C26   40   0.434  -0.065   0.165
    1UNL    O15   41   0.409  -0.148   0.274
    1UNL    C27   42   0.453  -0.146   0.041
    1UNL    O16   43   0.564  -0.228   0.061
    1UNL    C28   44   0.321  -0.213   0.017
    1UNL    O17   45   0.299  -0.309   0.116
    1UNL     H1   46  -0.081  -0.379  -0.127
    1UNL     H2   47  -0.190  -0.494  -0.199
    1UNL     H3   48  -0.151  -0.367  -0.297
    1UNL     H4   49  -0.445  -0.421  -0.172
    1UNL     H5   50  -0.612  -0.260  -0.071
    1UNL     H6   51  -0.512   0.093   0.010
    1UNL     H7   52  -0.718   0.121  -0.116
    1UNL     H8   53  -0.744  -0.055  -0.098
    1UNL     H9   54  -0.623   0.017  -0.211
    1UNL    H10   55  -0.686  -0.133   0.123
    1UNL    H11   56  -0.716   0.040   0.149
    1UNL    H12   57  -0.567  -0.038   0.202
    1UNL    H13   58  -0.295   0.019  -0.013
    1UNL    H14   59  -0.063  -0.012   0.068
    1UNL    H15   60  -0.054   0.268  -0.003
    1UNL    H16   61  -0.283   0.316  -0.178
    1UNL    H17   62  -0.172   0.450  -0.144
    1UNL    H18   63  -0.387   0.429   0.213
    1UNL    H19   64  -0.535   0.325   0.185
    1UNL    H20   65  -0.226   0.177   0.381
    1UNL    H21   66   0.034   0.336  -0.233
    1UNL    H22   67  -0.168   0.150  -0.330
    1UNL    H23   68   0.167   0.144  -0.292
    1UNL    H24   69  -0.048  -0.038  -0.265
    1UNL    H25   70   0.117   0.127  -0.035
    1UNL    H26   71   0.107  -0.187   0.034
    1UNL    H27   72   0.304   0.071   0.261
    1UNL    H28   73   0.326   0.133  -0.056
    1UNL    H29   74   0.270   0.234   0.076
    1UNL    H30   75   0.763   0.239  -0.032
    1UNL    H31   76   0.718   0.266   0.142
    1UNL    H32   77   0.970  -0.003   0.043
    1UNL    H33   78   0.527  -0.017   0.192
    1UNL    H34   79   0.321  -0.190   0.259
    1UNL    H35   80   0.463  -0.087  -0.054
    1UNL    H36   81   0.641  -0.167   0.094
    1UNL    H37   82   0.325  -0.258  -0.089
    1UNL    H38   83   0.386  -0.346   0.133
   0.00000   0.00000   0.00000   0.00000   0.00000   0.00000   0.00000   0.00000   0.00000
Generated with MDTraj, t= 83.0
 83
    1UNL     C1    1  -0.144  -0.355  -0.191
    1UNL     C2    2  -0.256  -0.279  -0.134
    1UNL     C3    3  -0.384  -0.331  -0.103
    1UNL     C4    4  -0.480  -0.254  -0.044
    1UNL     C5    5  -0.457  -0.117  -0.038
    1UNL     C6    6  -0.580  -0.027  -0.008
    1UNL     C7    7  -0.679  -0.025  -0.130
    1UNL     C8    8  -0.643  -0.059   0.126
    1UNL     C9    9  -0.332  -0.067  -0.062
    1UNL    C10   10  -0.229  -0.143  -0.109
    1UNL     O1   11  -0.101  -0.108  -0.126
    1UNL    C11   12  -0.069   0.017  -0.069
    1UNL     O2   13  -0.160   0.125  -0.082
    1UNL    C12   14  -0.103   0.253  -0.117
    1UNL    C13   15  -0.224   0.355  -0.120
    1UNL     O3   16  -0.274   0.384   0.001
    1UNL    C14   17  -0.371   0.302   0.045
    1UNL     O4   18  -0.414   0.214  -0.024
    1UNL    C15   19  -0.424   0.342   0.183
    1UNL    C16   20  -0.373   0.244   0.285
    1UNL     O5   21  -0.441   0.157   0.331
    1UNL     O6   22  -0.243   0.258   0.320
    1UNL    C17   23  -0.011   0.252  -0.245
    1UNL     O7   24  -0.084   0.266  -0.362
    1UNL    C18   25   0.072   0.120  -0.248
    1UNL     O8   26   0.013   0.027  -0.342
    1UNL    C19   27   0.082   0.052  -0.115
    1UNL     O9   28   0.175  -0.053  -0.114
    1UNL    C20   29   0.184  -0.112   0.016
    1UNL    O10   30   0.192  -0.024   0.136
    1UNL    C21   31   0.311   0.043   0.162
    1UNL    C22   32   0.357   0.165   0.067
    1UNL    O11   33   0.482   0.229   0.103
    1UNL    C23   34   0.579   0.164   0.034
    1UNL    O12   35   0.569   0.089  -0.060
    1UNL    C24   36   0.716   0.194   0.087
    1UNL    C25   37   0.780   0.056   0.087
    1UNL    O13   38   0.739  -0.042   0.144
    1UNL    O14   39   0.892   0.049   0.006
    1UNL    C26   40   0.426  -0.052   0.169
    1UNL    O15   41   0.416  -0.123   0.290
    1UNL    C27   42   0.437  -0.145   0.040
    1UNL    O16   43   0.542  -0.237   0.044
    1UNL    C28   44   0.297  -0.219   0.022
    1UNL    O17   45   0.291  -0.328   0.118
    1UNL     H1   46  -0.069  -0.376  -0.111
    1UNL     H2   47  -0.187  -0.448  -0.222
    1UNL     H3   48  -0.108  -0.310  -0.277
    1UNL     H4   49  -0.407  -0.435  -0.119
    1UNL     H5   50  -0.578  -0.291  -0.026
    1UNL     H6   51  -0.531   0.076   0.002
    1UNL     H7   52  -0.769   0.032  -0.107
    1UNL     H8   53  -0.707  -0.124  -0.153
    1UNL     H9   54  -0.632   0.031  -0.209
    1UNL    H10   55  -0.686  -0.161   0.133
    1UNL    H11   56  -0.728   0.009   0.139
    1UNL    H12   57  -0.578  -0.048   0.209
    1UNL    H13   58  -0.320   0.031  -0.043
    1UNL    H14   59  -0.058  -0.010   0.040
    1UNL    H15   60  -0.044   0.289  -0.031
    1UNL    H16   61  -0.306   0.313  -0.176
    1UNL    H17   62  -0.186   0.450  -0.168
    1UNL    H18   63  -0.388   0.441   0.206
    1UNL    H19   64  -0.532   0.337   0.177
    1UNL    H20   65  -0.206   0.182   0.375
    1UNL    H21   66   0.067   0.333  -0.235
    1UNL    H22   67  -0.064   0.193  -0.422
    1UNL    H23   68   0.183   0.129  -0.287
    1UNL    H24   69  -0.047  -0.029  -0.290
    1UNL    H25   70   0.123   0.120  -0.040
    1UNL    H26   71   0.087  -0.170   0.030
    1UNL    H27   72   0.288   0.082   0.264
    1UNL    H28   73   0.360   0.127  -0.043
    1UNL    H29   74   0.277   0.243   0.057
    1UNL    H30   75   0.776   0.263   0.016
    1UNL    H31   76   0.700   0.239   0.183
    1UNL    H32   77   0.931  -0.042   0.024
    1UNL    H33   78   0.515   0.007   0.181
    1UNL    H34   79   0.338  -0.180   0.270
    1UNL    H35   80   0.454  -0.093  -0.055
    1UNL    H36   81   0.615  -0.191   0.087
    1UNL    H37   82   0.302  -0.269  -0.079
    1UNL    H38   83   0.369  -0.382   0.102
   0.00000   0.00000   0.00000   0.00000   0.00000   0.00000   0.00000   0.00000   0.00000
Generated with MDTraj, t= 84.0
 83
    1UNL     C1    1  -0.111  -0.375  -0.137
    1UNL     C2    2  -0.234  -0.290  -0.106
    1UNL     C3    3  -0.356  -0.356  -0.083
    1UNL     C4    4  -0.468  -0.279  -0.056
    1UNL     C5    5  -0.458  -0.143  -0.039
    1UNL     C6    6  -0.576  -0.059  -0.001
    1UNL     C7    7  -0.687  -0.068  -0.101
    1UNL     C8    8  -0.614  -0.097   0.141
    1UNL     C9    9  -0.334  -0.087  -0.054
    1UNL    C10   10  -0.223  -0.153  -0.089
    1UNL     O1   11  -0.092  -0.096  -0.117
    1UNL    C11   12  -0.062   0.038  -0.071
    1UNL     O2   13  -0.156   0.133  -0.134
    1UNL    C12   14  -0.109   0.267  -0.134
    1UNL    C13   15  -0.220   0.376  -0.129
    1UNL     O3   16  -0.267   0.415  -0.007
    1UNL    C14   17  -0.354   0.315   0.041
    1UNL     O4   18  -0.398   0.226  -0.022
    1UNL    C15   19  -0.399   0.345   0.180
    1UNL    C16   20  -0.369   0.241   0.278
    1UNL     O5   21  -0.453   0.160   0.313
    1UNL     O6   22  -0.241   0.240   0.323
    1UNL    C17   23  -0.000   0.277  -0.248
    1UNL     O7   24  -0.059   0.292  -0.378
    1UNL    C18   25   0.084   0.144  -0.250
    1UNL     O8   26   0.037   0.059  -0.355
    1UNL    C19   27   0.089   0.082  -0.113
    1UNL     O9   28   0.188  -0.020  -0.114
    1UNL    C20   29   0.180  -0.098   0.010
    1UNL    O10   30   0.173  -0.012   0.127
    1UNL    C21   31   0.297   0.044   0.171
    1UNL    C22   32   0.344   0.178   0.088
    1UNL    O11   33   0.477   0.199   0.129
    1UNL    C23   34   0.565   0.165   0.027
    1UNL    O12   35   0.536   0.143  -0.087
    1UNL    C24   36   0.708   0.152   0.072
    1UNL    C25   37   0.768   0.019   0.059
    1UNL    O13   38   0.724  -0.082   0.104
    1UNL    O14   39   0.887   0.028  -0.001
    1UNL    C26   40   0.415  -0.060   0.188
    1UNL    O15   41   0.382  -0.133   0.314
    1UNL    C27   42   0.425  -0.141   0.052
    1UNL    O16   43   0.507  -0.243   0.066
    1UNL    C28   44   0.292  -0.203   0.019
    1UNL    O17   45   0.255  -0.309   0.104
    1UNL     H1   46  -0.079  -0.423  -0.053
    1UNL     H2   47  -0.146  -0.455  -0.204
    1UNL     H3   48  -0.032  -0.326  -0.191
    1UNL     H4   49  -0.359  -0.460  -0.115
    1UNL     H5   50  -0.566  -0.326  -0.040
    1UNL     H6   51  -0.531   0.048   0.001
    1UNL     H7   52  -0.768   0.000  -0.071
    1UNL     H8   53  -0.733  -0.162  -0.102
    1UNL     H9   54  -0.660  -0.028  -0.198
    1UNL    H10   55  -0.651  -0.201   0.140
    1UNL    H11   56  -0.693  -0.031   0.175
    1UNL    H12   57  -0.527  -0.091   0.207
    1UNL    H13   58  -0.321   0.022  -0.033
    1UNL    H14   59  -0.078   0.032   0.038
    1UNL    H15   60  -0.053   0.275  -0.036
    1UNL    H16   61  -0.299   0.336  -0.192
    1UNL    H17   62  -0.177   0.469  -0.175
    1UNL    H18   63  -0.352   0.436   0.211
    1UNL    H19   64  -0.507   0.353   0.183
    1UNL    H20   65  -0.237   0.166   0.388
    1UNL    H21   66   0.060   0.371  -0.237
    1UNL    H22   67  -0.056   0.211  -0.435
    1UNL    H23   68   0.191   0.177  -0.286
    1UNL    H24   69  -0.006  -0.021  -0.314
    1UNL    H25   70   0.113   0.163  -0.041
    1UNL    H26   71   0.079  -0.153   0.006
    1UNL    H27   72   0.272   0.079   0.271
    1UNL    H28   73   0.337   0.178  -0.026
    1UNL    H29   74   0.284   0.268   0.120
    1UNL    H30   75   0.757   0.228  -0.000
    1UNL    H31   76   0.713   0.185   0.172
    1UNL    H32   77   0.933  -0.057  -0.004
    1UNL    H33   78   0.505  -0.004   0.209
    1UNL    H34   79   0.310  -0.190   0.281
    1UNL    H35   80   0.464  -0.076  -0.025
    1UNL    H36   81   0.601  -0.207   0.094
    1UNL    H37   82   0.311  -0.244  -0.082
    1UNL    H38   83   0.333  -0.372   0.111
   0.00000   0.00000   0.00000   0.00000   0.00000   0.00000   0.00000   0.00000   0.00000
Generated with MDTraj, t= 85.0
 83
    1UNL     C1    1  -0.064  -0.361  -0.098
    1UNL     C2    2  -0.188  -0.284  -0.099
    1UNL     C3    3  -0.306  -0.354  -0.063
    1UNL     C4    4  -0.417  -0.279  -0.032
    1UNL     C5    5  -0.420  -0.142  -0.037
    1UNL     C6    6  -0.535  -0.059   0.012
    1UNL     C7    7  -0.656  -0.090  -0.069
    1UNL     C8    8  -0.553  -0.076   0.166
    1UNL     C9    9  -0.303  -0.067  -0.067
    1UNL    C10   10  -0.188  -0.141  -0.105
    1UNL     O1   11  -0.066  -0.085  -0.134
    1UNL    C11   12  -0.060   0.047  -0.085
    1UNL     O2   13  -0.166   0.135  -0.146
    1UNL    C12   14  -0.127   0.272  -0.136
    1UNL    C13   15  -0.243   0.369  -0.158
    1UNL     O3   16  -0.283   0.415  -0.026
    1UNL    C14   17  -0.367   0.321   0.027
    1UNL     O4   18  -0.417   0.233  -0.031
    1UNL    C15   19  -0.384   0.350   0.175
    1UNL    C16   20  -0.363   0.223   0.257
    1UNL     O5   21  -0.455   0.148   0.259
    1UNL     O6   22  -0.246   0.202   0.312
    1UNL    C17   23  -0.007   0.296  -0.233
    1UNL     O7   24  -0.055   0.314  -0.365
    1UNL    C18   25   0.088   0.170  -0.248
    1UNL     O8   26   0.030   0.083  -0.340
    1UNL    C19   27   0.088   0.105  -0.102
    1UNL     O9   28   0.177  -0.001  -0.098
    1UNL    C20   29   0.163  -0.077   0.025
    1UNL    O10   30   0.156  -0.001   0.148
    1UNL    C21   31   0.283   0.036   0.199
    1UNL    C22   32   0.349   0.143   0.101
    1UNL    O11   33   0.492   0.173   0.127
    1UNL    C23   34   0.565   0.157   0.013
    1UNL    O12   35   0.514   0.129  -0.094
    1UNL    C24   36   0.714   0.160   0.037
    1UNL    C25   37   0.770   0.023   0.039
    1UNL    O13   38   0.720  -0.074   0.098
    1UNL    O14   39   0.885   0.020  -0.031
    1UNL    C26   40   0.377  -0.084   0.204
    1UNL    O15   41   0.308  -0.174   0.297
    1UNL    C27   42   0.401  -0.153   0.068
    1UNL    O16   43   0.484  -0.259   0.084
    1UNL    C28   44   0.261  -0.203   0.020
    1UNL    O17   45   0.202  -0.306   0.107
    1UNL     H1   46  -0.060  -0.427  -0.020
    1UNL     H2   47  -0.062  -0.416  -0.188
    1UNL     H3   48   0.025  -0.297  -0.102
    1UNL     H4   49  -0.318  -0.460  -0.057
    1UNL     H5   50  -0.513  -0.324  -0.018
    1UNL     H6   51  -0.512   0.051  -0.005
    1UNL     H7   52  -0.731  -0.012  -0.056
    1UNL     H8   53  -0.706  -0.180  -0.038
    1UNL     H9   54  -0.636  -0.080  -0.175
    1UNL    H10   55  -0.561  -0.182   0.192
    1UNL    H11   56  -0.642  -0.022   0.199
    1UNL    H12   57  -0.465  -0.033   0.219
    1UNL    H13   58  -0.308   0.043  -0.070
    1UNL    H14   59  -0.087   0.036   0.019
    1UNL    H15   60  -0.090   0.276  -0.028
    1UNL    H16   61  -0.316   0.310  -0.213
    1UNL    H17   62  -0.208   0.453  -0.221
    1UNL    H18   63  -0.320   0.426   0.213
    1UNL    H19   64  -0.484   0.391   0.187
    1UNL    H20   65  -0.252   0.114   0.351
    1UNL    H21   66   0.051   0.385  -0.203
    1UNL    H22   67  -0.105   0.226  -0.390
    1UNL    H23   68   0.198   0.198  -0.265
    1UNL    H24   69  -0.053   0.050  -0.300
    1UNL    H25   70   0.103   0.183  -0.022
    1UNL    H26   71   0.057  -0.121   0.017
    1UNL    H27   72   0.263   0.064   0.302
    1UNL    H28   73   0.332   0.111  -0.005
    1UNL    H29   74   0.296   0.243   0.120
    1UNL    H30   75   0.767   0.218  -0.044
    1UNL    H31   76   0.733   0.201   0.136
    1UNL    H32   77   0.904  -0.073  -0.039
    1UNL    H33   78   0.472  -0.069   0.258
    1UNL    H34   79   0.224  -0.209   0.259
    1UNL    H35   80   0.445  -0.082  -0.001
    1UNL    H36   81   0.574  -0.232   0.089
    1UNL    H37   82   0.268  -0.236  -0.082
    1UNL    H38   83   0.263  -0.368   0.145
   0.00000   0.00000   0.00000   0.00000   0.00000   0.00000   0.00000   0.00000   0.00000
Generated with MDTraj, t= 86.0
 83
    1UNL     C1    1  -0.035  -0.348  -0.131
    1UNL     C2    2  -0.161  -0.276  -0.087
    1UNL     C3    3  -0.260  -0.344  -0.025
    1UNL     C4    4  -0.378  -0.286   0.019
    1UNL     C5    5  -0.403  -0.149  -0.009
    1UNL     C6    6  -0.527  -0.076   0.035
    1UNL     C7    7  -0.655  -0.102  -0.057
    1UNL     C8    8  -0.557  -0.105   0.181
    1UNL     C9    9  -0.297  -0.073  -0.070
    1UNL    C10   10  -0.173  -0.135  -0.097
    1UNL     O1   11  -0.065  -0.047  -0.139
    1UNL    C11   12  -0.055   0.075  -0.081
    1UNL     O2   13  -0.161   0.157  -0.124
    1UNL    C12   14  -0.126   0.296  -0.145
    1UNL    C13   15  -0.259   0.374  -0.179
    1UNL     O3   16  -0.315   0.413  -0.052
    1UNL    C14   17  -0.380   0.309   0.011
    1UNL     O4   18  -0.427   0.211  -0.039
    1UNL    C15   19  -0.397   0.341   0.154
    1UNL    C16   20  -0.369   0.222   0.239
    1UNL     O5   21  -0.465   0.154   0.278
    1UNL     O6   22  -0.235   0.187   0.269
    1UNL    C17   23  -0.003   0.312  -0.240
    1UNL     O7   24  -0.038   0.340  -0.375
    1UNL    C18   25   0.097   0.197  -0.232
    1UNL     O8   26   0.076   0.116  -0.343
    1UNL    C19   27   0.089   0.131  -0.094
    1UNL     O9   28   0.181   0.021  -0.080
    1UNL    C20   29   0.155  -0.068   0.022
    1UNL    O10   30   0.140  -0.012   0.146
    1UNL    C21   31   0.263   0.036   0.202
    1UNL    C22   32   0.342   0.134   0.104
    1UNL    O11   33   0.482   0.142   0.135
    1UNL    C23   34   0.549   0.128   0.015
    1UNL    O12   35   0.495   0.111  -0.093
    1UNL    C24   36   0.694   0.142   0.010
    1UNL    C25   37   0.760   0.001   0.014
    1UNL    O13   38   0.708  -0.087   0.086
    1UNL    O14   39   0.877  -0.019  -0.044
    1UNL    C26   40   0.358  -0.088   0.222
    1UNL    O15   41   0.315  -0.193   0.307
    1UNL    C27   42   0.388  -0.149   0.085
    1UNL    O16   43   0.462  -0.259   0.110
    1UNL    C28   44   0.255  -0.184   0.017
    1UNL    O17   45   0.203  -0.299   0.080
    1UNL     H1   46   0.046  -0.348  -0.059
    1UNL     H2   47  -0.048  -0.449  -0.148
    1UNL     H3   48  -0.000  -0.311  -0.226
    1UNL     H4   49  -0.248  -0.452  -0.028
    1UNL     H5   50  -0.461  -0.343   0.059
    1UNL     H6   51  -0.503   0.035   0.024
    1UNL     H7   52  -0.752  -0.068  -0.029
    1UNL     H8   53  -0.665  -0.210  -0.072
    1UNL     H9   54  -0.634  -0.051  -0.150
    1UNL    H10   55  -0.581  -0.209   0.198
    1UNL    H11   56  -0.639  -0.047   0.228
    1UNL    H12   57  -0.470  -0.082   0.250
    1UNL    H13   58  -0.299   0.030  -0.070
    1UNL    H14   59  -0.063   0.061   0.023
    1UNL    H15   60  -0.103   0.339  -0.042
    1UNL    H16   61  -0.334   0.319  -0.236
    1UNL    H17   62  -0.233   0.468  -0.230
    1UNL    H18   63  -0.339   0.427   0.180
    1UNL    H19   64  -0.500   0.373   0.168
    1UNL    H20   65  -0.249   0.112   0.325
    1UNL    H21   66   0.045   0.407  -0.214
    1UNL    H22   67  -0.017   0.269  -0.432
    1UNL    H23   68   0.203   0.230  -0.251
    1UNL    H24   69   0.006   0.049  -0.321
    1UNL    H25   70   0.105   0.212  -0.014
    1UNL    H26   71   0.053  -0.119   0.004
    1UNL    H27   72   0.248   0.091   0.295
    1UNL    H28   73   0.332   0.110  -0.003
    1UNL    H29   74   0.293   0.239   0.119
    1UNL    H30   75   0.731   0.183  -0.083
    1UNL    H31   76   0.730   0.204   0.096
    1UNL    H32   77   0.902  -0.106  -0.013
    1UNL    H33   78   0.456  -0.036   0.245
    1UNL    H34   79   0.248  -0.238   0.255
    1UNL    H35   80   0.453  -0.082   0.023
    1UNL    H36   81   0.559  -0.235   0.135
    1UNL    H37   82   0.280  -0.206  -0.084
    1UNL    H38   83   0.265  -0.377   0.075
   0.00000   0.00000   0.00000   0.00000   0.00000   0.00000   0.00000   0.00000   0.00000
Generated with MDTraj, t= 87.0
 83
    1UNL     C1    1  -0.036  -0.336  -0.148
    1UNL     C2    2  -0.154  -0.269  -0.089
    1UNL     C3    3  -0.249  -0.343  -0.024
    1UNL     C4    4  -0.356  -0.287   0.042
    1UNL     C5    5  -0.383  -0.149   0.035
    1UNL     C6    6  -0.523  -0.091   0.064
    1UNL     C7    7  -0.619  -0.126  -0.043
    1UNL     C8    8  -0.579  -0.128   0.199
    1UNL     C9    9  -0.291  -0.067  -0.021
    1UNL    C10   10  -0.169  -0.127  -0.078
    1UNL     O1   11  -0.063  -0.057  -0.130
    1UNL    C11   12  -0.071   0.076  -0.093
    1UNL     O2   13  -0.160   0.165  -0.173
    1UNL    C12   14  -0.130   0.301  -0.141
    1UNL    C13   15  -0.254   0.393  -0.163
    1UNL     O3   16  -0.319   0.427  -0.046
    1UNL    C14   17  -0.390   0.316  -0.006
    1UNL     O4   18  -0.401   0.211  -0.071
    1UNL    C15   19  -0.457   0.310   0.128
    1UNL    C16   20  -0.379   0.211   0.211
    1UNL     O5   21  -0.445   0.151   0.294
    1UNL     O6   22  -0.250   0.195   0.198
    1UNL    C17   23  -0.008   0.330  -0.229
    1UNL     O7   24  -0.042   0.345  -0.362
    1UNL    C18   25   0.101   0.218  -0.218
    1UNL     O8   26   0.091   0.138  -0.338
    1UNL    C19   27   0.081   0.135  -0.090
    1UNL     O9   28   0.180   0.031  -0.088
    1UNL    C20   29   0.161  -0.053   0.019
    1UNL    O10   30   0.159  -0.003   0.157
    1UNL    C21   31   0.283   0.048   0.202
    1UNL    C22   32   0.340   0.155   0.115
    1UNL    O11   33   0.480   0.185   0.137
    1UNL    C23   34   0.545   0.133   0.028
    1UNL    O12   35   0.483   0.102  -0.075
    1UNL    C24   36   0.696   0.104   0.029
    1UNL    C25   37   0.745  -0.038   0.022
    1UNL    O13   38   0.682  -0.125   0.082
    1UNL    O14   39   0.854  -0.058  -0.056
    1UNL    C26   40   0.376  -0.077   0.211
    1UNL    O15   41   0.308  -0.171   0.295
    1UNL    C27   42   0.394  -0.150   0.083
    1UNL    O16   43   0.460  -0.273   0.097
    1UNL    C28   44   0.258  -0.178   0.012
    1UNL    O17   45   0.212  -0.308   0.062
    1UNL     H1   46   0.042  -0.355  -0.071
    1UNL     H2   47  -0.049  -0.428  -0.195
    1UNL     H3   48  -0.003  -0.268  -0.217
    1UNL     H4   49  -0.246  -0.449  -0.045
    1UNL     H5   50  -0.433  -0.350   0.084
    1UNL     H6   51  -0.512   0.020   0.060
    1UNL     H7   52  -0.711  -0.076  -0.035
    1UNL     H8   53  -0.643  -0.234  -0.033
    1UNL     H9   54  -0.579  -0.098  -0.140
    1UNL    H10   55  -0.596  -0.236   0.216
    1UNL    H11   56  -0.672  -0.073   0.224
    1UNL    H12   57  -0.508  -0.097   0.280
    1UNL    H13   58  -0.324   0.039  -0.048
    1UNL    H14   59  -0.097   0.079   0.010
    1UNL    H15   60  -0.095   0.311  -0.035
    1UNL    H16   61  -0.331   0.351  -0.230
    1UNL    H17   62  -0.224   0.491  -0.204
    1UNL    H18   63  -0.471   0.407   0.172
    1UNL    H19   64  -0.560   0.278   0.118
    1UNL    H20   65  -0.214   0.135   0.265
    1UNL    H21   66   0.039   0.422  -0.197
    1UNL    H22   67  -0.056   0.251  -0.402
    1UNL    H23   68   0.206   0.248  -0.228
    1UNL    H24   69   0.043   0.060  -0.308
    1UNL    H25   70   0.102   0.209  -0.002
    1UNL    H26   71   0.058  -0.101   0.004
    1UNL    H27   72   0.272   0.084   0.308
    1UNL    H28   73   0.326   0.129   0.013
    1UNL    H29   74   0.277   0.250   0.140
    1UNL    H30   75   0.730   0.145  -0.064
    1UNL    H31   76   0.756   0.153   0.114
    1UNL    H32   77   0.879  -0.152  -0.054
    1UNL    H33   78   0.474  -0.055   0.262
    1UNL    H34   79   0.216  -0.201   0.268
    1UNL    H35   80   0.459  -0.090   0.012
    1UNL    H36   81   0.546  -0.260   0.131
    1UNL    H37   82   0.290  -0.187  -0.091
    1UNL    H38   83   0.285  -0.361   0.093
   0.00000   0.00000   0.00000   0.00000   0.00000   0.00000   0.00000   0.00000   0.00000
Generated with MDTraj, t= 88.0
 83
    1UNL     C1    1  -0.028  -0.341  -0.135
    1UNL     C2    2  -0.153  -0.270  -0.083
    1UNL     C3    3  -0.248  -0.339  -0.009
    1UNL     C4    4  -0.360  -0.282   0.042
    1UNL     C5    5  -0.381  -0.147   0.019
    1UNL     C6    6  -0.510  -0.088   0.076
    1UNL     C7    7  -0.630  -0.112  -0.015
    1UNL     C8    8  -0.540  -0.128   0.226
    1UNL     C9    9  -0.284  -0.074  -0.041
    1UNL    C10   10  -0.164  -0.129  -0.088
    1UNL     O1   11  -0.063  -0.046  -0.133
    1UNL    C11   12  -0.058   0.088  -0.077
    1UNL     O2   13  -0.156   0.173  -0.140
    1UNL    C12   14  -0.123   0.312  -0.124
    1UNL    C13   15  -0.247   0.391  -0.166
    1UNL     O3   16  -0.341   0.398  -0.055
    1UNL    C14   17  -0.425   0.295  -0.036
    1UNL     O4   18  -0.460   0.216  -0.125
    1UNL    C15   19  -0.479   0.270   0.106
    1UNL    C16   20  -0.381   0.195   0.189
    1UNL     O5   21  -0.439   0.136   0.280
    1UNL     O6   22  -0.241   0.186   0.174
    1UNL    C17   23   0.006   0.342  -0.212
    1UNL     O7   24  -0.033   0.375  -0.341
    1UNL    C18   25   0.099   0.209  -0.222
    1UNL     O8   26   0.040   0.133  -0.334
    1UNL    C19   27   0.091   0.146  -0.085
    1UNL     O9   28   0.179   0.042  -0.085
    1UNL    C20   29   0.156  -0.032   0.025
    1UNL    O10   30   0.167   0.021   0.155
    1UNL    C21   31   0.300   0.052   0.193
    1UNL    C22   32   0.361   0.154   0.101
    1UNL    O11   33   0.500   0.162   0.136
    1UNL    C23   34   0.573   0.118   0.035
    1UNL    O12   35   0.527   0.085  -0.073
    1UNL    C24   36   0.718   0.107   0.057
    1UNL    C25   37   0.745  -0.042   0.048
    1UNL    O13   38   0.699  -0.131   0.115
    1UNL    O14   39   0.818  -0.077  -0.061
    1UNL    C26   40   0.385  -0.084   0.193
    1UNL    O15   41   0.332  -0.162   0.304
    1UNL    C27   42   0.374  -0.152   0.052
    1UNL    O16   43   0.451  -0.266   0.046
    1UNL    C28   44   0.232  -0.170   0.012
    1UNL    O17   45   0.174  -0.273   0.092
    1UNL     H1   46  -0.030  -0.447  -0.106
    1UNL     H2   47  -0.013  -0.335  -0.240
    1UNL     H3   48   0.044  -0.285  -0.088
    1UNL     H4   49  -0.229  -0.445   0.005
    1UNL     H5   50  -0.434  -0.351   0.076
    1UNL     H6   51  -0.483   0.019   0.077
    1UNL     H7   52  -0.715  -0.057   0.017
    1UNL     H8   53  -0.664  -0.217  -0.004
    1UNL     H9   54  -0.614  -0.085  -0.119
    1UNL    H10   55  -0.557  -0.240   0.232
    1UNL    H11   56  -0.633  -0.071   0.251
    1UNL    H12   57  -0.460  -0.100   0.296
    1UNL    H13   58  -0.295   0.027  -0.061
    1UNL    H14   59  -0.084   0.079   0.028
    1UNL    H15   60  -0.104   0.326  -0.018
    1UNL    H16   61  -0.294   0.334  -0.248
    1UNL    H17   62  -0.231   0.495  -0.201
    1UNL    H18   63  -0.495   0.367   0.154
    1UNL    H19   64  -0.578   0.229   0.108
    1UNL    H20   65  -0.207   0.111   0.231
    1UNL    H21   66   0.057   0.428  -0.168
    1UNL    H22   67  -0.051   0.290  -0.382
    1UNL    H23   68   0.200   0.236  -0.239
    1UNL    H24   69   0.011   0.051  -0.286
    1UNL    H25   70   0.114   0.233  -0.010
    1UNL    H26   71   0.048  -0.072   0.016
    1UNL    H27   72   0.293   0.091   0.299
    1UNL    H28   73   0.346   0.116   0.005
    1UNL    H29   74   0.317   0.259   0.117
    1UNL    H30   75   0.766   0.160  -0.021
    1UNL    H31   76   0.740   0.152   0.161
    1UNL    H32   77   0.824  -0.175  -0.084
    1UNL    H33   78   0.493  -0.058   0.212
    1UNL    H34   79   0.237  -0.173   0.294
    1UNL    H35   80   0.419  -0.082  -0.026
    1UNL    H36   81   0.548  -0.247   0.080
    1UNL    H37   82   0.227  -0.186  -0.099
    1UNL    H38   83   0.245  -0.336   0.122
   0.00000   0.00000   0.00000   0.00000   0.00000   0.00000   0.00000   0.00000   0.00000
Generated with MDTraj, t= 89.0
 83
    1UNL     C1    1  -0.034  -0.316  -0.133
    1UNL     C2    2  -0.166  -0.261  -0.081
    1UNL     C3    3  -0.260  -0.345  -0.032
    1UNL     C4    4  -0.384  -0.293   0.013
    1UNL     C5    5  -0.402  -0.155   0.009
    1UNL     C6    6  -0.522  -0.092   0.077
    1UNL     C7    7  -0.649  -0.123   0.004
    1UNL     C8    8  -0.526  -0.122   0.223
    1UNL     C9    9  -0.307  -0.073  -0.040
    1UNL    C10   10  -0.187  -0.125  -0.079
    1UNL     O1   11  -0.081  -0.051  -0.133
    1UNL    C11   12  -0.076   0.088  -0.086
    1UNL     O2   13  -0.174   0.175  -0.152
    1UNL    C12   14  -0.151   0.313  -0.133
    1UNL    C13   15  -0.280   0.389  -0.172
    1UNL     O3   16  -0.361   0.408  -0.058
    1UNL    C14   17  -0.435   0.296  -0.036
    1UNL     O4   18  -0.454   0.195  -0.107
    1UNL    C15   19  -0.480   0.285   0.099
    1UNL    C16   20  -0.388   0.200   0.177
    1UNL     O5   21  -0.432   0.135   0.271
    1UNL     O6   22  -0.259   0.198   0.145
    1UNL    C17   23  -0.021   0.346  -0.215
    1UNL     O7   24  -0.056   0.390  -0.341
    1UNL    C18   25   0.074   0.227  -0.217
    1UNL     O8   26   0.045   0.145  -0.331
    1UNL    C19   27   0.072   0.146  -0.091
    1UNL     O9   28   0.161   0.037  -0.081
    1UNL    C20   29   0.154  -0.044   0.035
    1UNL    O10   30   0.182   0.025   0.159
    1UNL    C21   31   0.321   0.055   0.190
    1UNL    C22   32   0.388   0.155   0.098
    1UNL    O11   33   0.519   0.163   0.138
    1UNL    C23   34   0.595   0.115   0.033
    1UNL    O12   35   0.552   0.099  -0.079
    1UNL    C24   36   0.733   0.066   0.070
    1UNL    C25   37   0.754  -0.073   0.057
    1UNL    O13   38   0.722  -0.149   0.139
    1UNL    O14   39   0.829  -0.103  -0.057
    1UNL    C26   40   0.409  -0.074   0.201
    1UNL    O15   41   0.366  -0.149   0.308
    1UNL    C27   42   0.408  -0.145   0.059
    1UNL    O16   43   0.481  -0.269   0.058
    1UNL    C28   44   0.262  -0.168   0.016
    1UNL    O17   45   0.209  -0.277   0.097
    1UNL     H1   46  -0.025  -0.305  -0.235
    1UNL     H2   47   0.047  -0.264  -0.082
    1UNL     H3   48  -0.027  -0.416  -0.093
    1UNL     H4   49  -0.242  -0.451  -0.036
    1UNL     H5   50  -0.469  -0.358   0.036
    1UNL     H6   51  -0.502   0.020   0.071
    1UNL     H7   52  -0.734  -0.085   0.060
    1UNL     H8   53  -0.665  -0.231  -0.004
    1UNL     H9   54  -0.646  -0.071  -0.091
    1UNL    H10   55  -0.548  -0.234   0.232
    1UNL    H11   56  -0.606  -0.056   0.268
    1UNL    H12   57  -0.428  -0.100   0.268
    1UNL    H13   58  -0.327   0.035  -0.045
    1UNL    H14   59  -0.110   0.076   0.018
    1UNL    H15   60  -0.128   0.328  -0.030
    1UNL    H16   61  -0.337   0.333  -0.250
    1UNL    H17   62  -0.261   0.491  -0.209
    1UNL    H18   63  -0.488   0.385   0.141
    1UNL    H19   64  -0.580   0.249   0.094
    1UNL    H20   65  -0.209   0.145   0.216
    1UNL    H21   66   0.027   0.432  -0.166
    1UNL    H22   67   0.014   0.374  -0.404
    1UNL    H23   68   0.173   0.259  -0.229
    1UNL    H24   69  -0.041   0.104  -0.305
    1UNL    H25   70   0.079   0.206   0.006
    1UNL    H26   71   0.051  -0.094   0.043
    1UNL    H27   72   0.316   0.095   0.296
    1UNL    H28   73   0.381   0.125  -0.000
    1UNL    H29   74   0.338   0.253   0.113
    1UNL    H30   75   0.802   0.124   0.007
    1UNL    H31   76   0.746   0.086   0.178
    1UNL    H32   77   0.843  -0.201  -0.065
    1UNL    H33   78   0.513  -0.044   0.214
    1UNL    H34   79   0.266  -0.157   0.301
    1UNL    H35   80   0.469  -0.092  -0.021
    1UNL    H36   81   0.566  -0.245   0.089
    1UNL    H37   82   0.273  -0.191  -0.096
    1UNL    H38   83   0.285  -0.330   0.122
   0.00000   0.00000   0.00000   0.00000   0.00000   0.00000   0.00000   0.00000   0.00000
Generated with MDTraj, t= 90.0
 83
    1UNL     C1    1  -0.067  -0.335  -0.149
    1UNL     C2    2  -0.189  -0.274  -0.096
    1UNL     C3    3  -0.297  -0.352  -0.059
    1UNL     C4    4  -0.410  -0.295  -0.003
    1UNL     C5    5  -0.421  -0.161   0.003
    1UNL     C6    6  -0.547  -0.107   0.058
    1UNL     C7    7  -0.667  -0.169  -0.017
    1UNL     C8    8  -0.556  -0.125   0.212
    1UNL     C9    9  -0.317  -0.073  -0.040
    1UNL    C10   10  -0.196  -0.129  -0.085
    1UNL     O1   11  -0.077  -0.056  -0.120
    1UNL    C11   12  -0.085   0.078  -0.074
    1UNL     O2   13  -0.170   0.149  -0.158
    1UNL    C12   14  -0.162   0.291  -0.134
    1UNL    C13   15  -0.296   0.348  -0.192
    1UNL     O3   16  -0.365   0.398  -0.080
    1UNL    C14   17  -0.427   0.292  -0.023
    1UNL     O4   18  -0.452   0.188  -0.084
    1UNL    C15   19  -0.468   0.320   0.117
    1UNL    C16   20  -0.385   0.228   0.207
    1UNL     O5   21  -0.450   0.163   0.289
    1UNL     O6   22  -0.251   0.218   0.197
    1UNL    C17   23  -0.029   0.342  -0.206
    1UNL     O7   24  -0.064   0.394  -0.337
    1UNL    C18   25   0.077   0.234  -0.198
    1UNL     O8   26   0.067   0.147  -0.318
    1UNL    C19   27   0.061   0.143  -0.073
    1UNL     O9   28   0.173   0.054  -0.080
    1UNL    C20   29   0.181  -0.029   0.032
    1UNL    O10   30   0.200   0.046   0.152
    1UNL    C21   31   0.331   0.080   0.187
    1UNL    C22   32   0.408   0.180   0.094
    1UNL    O11   33   0.546   0.179   0.123
    1UNL    C23   34   0.617   0.113   0.029
    1UNL    O12   35   0.556   0.077  -0.068
    1UNL    C24   36   0.767   0.080   0.055
    1UNL    C25   37   0.781  -0.076   0.060
    1UNL    O13   38   0.731  -0.147   0.140
    1UNL    O14   39   0.859  -0.134  -0.036
    1UNL    C26   40   0.415  -0.056   0.204
    1UNL    O15   41   0.343  -0.135   0.294
    1UNL    C27   42   0.416  -0.141   0.062
    1UNL    O16   43   0.466  -0.271   0.092
    1UNL    C28   44   0.276  -0.154   0.001
    1UNL    O17   45   0.211  -0.272   0.041
    1UNL     H1   46   0.007  -0.267  -0.142
    1UNL     H2   47  -0.027  -0.414  -0.083
    1UNL     H3   48  -0.074  -0.367  -0.250
    1UNL     H4   49  -0.316  -0.457  -0.083
    1UNL     H5   50  -0.489  -0.361   0.022
    1UNL     H6   51  -0.543   0.002   0.034
    1UNL     H7   52  -0.757  -0.123   0.030
    1UNL     H8   53  -0.674  -0.273   0.005
    1UNL     H9   54  -0.664  -0.146  -0.123
    1UNL    H10   55  -0.538  -0.230   0.245
    1UNL    H11   56  -0.648  -0.085   0.263
    1UNL    H12   57  -0.471  -0.070   0.263
    1UNL    H13   58  -0.342   0.028  -0.065
    1UNL    H14   59  -0.124   0.078   0.032
    1UNL    H15   60  -0.151   0.306  -0.029
    1UNL    H16   61  -0.362   0.268  -0.231
    1UNL    H17   62  -0.277   0.420  -0.274
    1UNL    H18   63  -0.450   0.428   0.129
    1UNL    H19   64  -0.573   0.303   0.132
    1UNL    H20   65  -0.222   0.167   0.277
    1UNL    H21   66   0.002   0.433  -0.152
    1UNL    H22   67  -0.049   0.331  -0.416
    1UNL    H23   68   0.174   0.273  -0.202
    1UNL    H24   69   0.060   0.059  -0.276
    1UNL    H25   70   0.069   0.204   0.021
    1UNL    H26   71   0.077  -0.073   0.049
    1UNL    H27   72   0.330   0.113   0.293
    1UNL    H28   73   0.387   0.155  -0.003
    1UNL    H29   74   0.369   0.281   0.103
    1UNL    H30   75   0.824   0.124  -0.031
    1UNL    H31   76   0.796   0.131   0.143
    1UNL    H32   77   0.867  -0.231  -0.024
    1UNL    H33   78   0.515  -0.034   0.242
    1UNL    H34   79   0.270  -0.177   0.245
    1UNL    H35   80   0.486  -0.108  -0.019
    1UNL    H36   81   0.561  -0.246   0.130
    1UNL    H37   82   0.290  -0.143  -0.114
    1UNL    H38   83   0.278  -0.344   0.022
   0.00000   0.00000   0.00000   0.00000   0.00000   0.00000   0.00000   0.00000   0.00000
Generated with MDTraj, t= 91.0
 83
    1UNL     C1    1  -0.044  -0.334  -0.151
    1UNL     C2    2  -0.173  -0.277  -0.098
    1UNL     C3    3  -0.286  -0.354  -0.087
    1UNL     C4    4  -0.411  -0.304  -0.048
    1UNL     C5    5  -0.417  -0.165  -0.024
    1UNL     C6    6  -0.541  -0.087   0.021
    1UNL     C7    7  -0.672  -0.142  -0.046
    1UNL     C8    8  -0.553  -0.065   0.171
    1UNL     C9    9  -0.303  -0.085  -0.022
    1UNL    C10   10  -0.182  -0.143  -0.061
    1UNL     O1   11  -0.061  -0.071  -0.081
    1UNL    C11   12  -0.069   0.079  -0.070
    1UNL     O2   13  -0.161   0.135  -0.156
    1UNL    C12   14  -0.177   0.271  -0.141
    1UNL    C13   15  -0.323   0.315  -0.189
    1UNL     O3   16  -0.384   0.386  -0.083
    1UNL    C14   17  -0.439   0.294   0.003
    1UNL     O4   18  -0.453   0.179  -0.033
    1UNL    C15   19  -0.468   0.335   0.147
    1UNL    C16   20  -0.398   0.243   0.237
    1UNL     O5   21  -0.461   0.162   0.298
    1UNL     O6   22  -0.263   0.258   0.248
    1UNL    C17   23  -0.049   0.343  -0.212
    1UNL     O7   24  -0.077   0.396  -0.339
    1UNL    C18   25   0.070   0.237  -0.216
    1UNL     O8   26   0.051   0.139  -0.325
    1UNL    C19   27   0.071   0.145  -0.089
    1UNL     O9   28   0.184   0.063  -0.091
    1UNL    C20   29   0.170  -0.023   0.026
    1UNL    O10   30   0.198   0.041   0.156
    1UNL    C21   31   0.331   0.069   0.182
    1UNL    C22   32   0.400   0.160   0.075
    1UNL    O11   33   0.539   0.158   0.105
    1UNL    C23   34   0.620   0.097   0.012
    1UNL    O12   35   0.589   0.054  -0.096
    1UNL    C24   36   0.767   0.075   0.035
    1UNL    C25   37   0.793  -0.072   0.060
    1UNL    O13   38   0.720  -0.121   0.143
    1UNL    O14   39   0.903  -0.130   0.002
    1UNL    C26   40   0.405  -0.069   0.199
    1UNL    O15   41   0.332  -0.146   0.286
    1UNL    C27   42   0.406  -0.136   0.062
    1UNL    O16   43   0.483  -0.250   0.074
    1UNL    C28   44   0.261  -0.154   0.017
    1UNL    O17   45   0.206  -0.263   0.090
    1UNL     H1   46   0.007  -0.376  -0.066
    1UNL     H2   47  -0.041  -0.422  -0.212
    1UNL     H3   48   0.022  -0.264  -0.195
    1UNL     H4   49  -0.275  -0.452  -0.126
    1UNL     H5   50  -0.505  -0.359  -0.057
    1UNL     H6   51  -0.533   0.016  -0.021
    1UNL     H7   52  -0.762  -0.075  -0.053
    1UNL     H8   53  -0.707  -0.230   0.002
    1UNL     H9   54  -0.646  -0.168  -0.148
    1UNL    H10   55  -0.574  -0.161   0.222
    1UNL    H11   56  -0.628   0.010   0.209
    1UNL    H12   57  -0.454  -0.037   0.222
    1UNL    H13   58  -0.303   0.022  -0.010
    1UNL    H14   59  -0.103   0.104   0.037
    1UNL    H15   60  -0.176   0.283  -0.031
    1UNL    H16   61  -0.381   0.223  -0.210
    1UNL    H17   62  -0.322   0.384  -0.274
    1UNL    H18   63  -0.436   0.437   0.168
    1UNL    H19   64  -0.574   0.318   0.162
    1UNL    H20   65  -0.240   0.191   0.313
    1UNL    H21   66  -0.023   0.425  -0.144
    1UNL    H22   67  -0.061   0.319  -0.395
    1UNL    H23   68   0.162   0.287  -0.224
    1UNL    H24   69   0.025   0.059  -0.278
    1UNL    H25   70   0.090   0.216  -0.008
    1UNL    H26   71   0.064  -0.063   0.035
    1UNL    H27   72   0.337   0.113   0.280
    1UNL    H28   73   0.379   0.119  -0.016
    1UNL    H29   74   0.355   0.259   0.067
    1UNL    H30   75   0.829   0.109  -0.054
    1UNL    H31   76   0.800   0.121   0.122
    1UNL    H32   77   0.923  -0.207   0.056
    1UNL    H33   78   0.506  -0.049   0.236
    1UNL    H34   79   0.245  -0.184   0.258
    1UNL    H35   80   0.452  -0.071  -0.017
    1UNL    H36   81   0.572  -0.225   0.091
    1UNL    H37   82   0.256  -0.179  -0.095
    1UNL    H38   83   0.282  -0.318   0.110
   0.00000   0.00000   0.00000   0.00000   0.00000   0.00000   0.00000   0.00000   0.00000
Generated with MDTraj, t= 92.0
 83
    1UNL     C1    1  -0.035  -0.343  -0.119
    1UNL     C2    2  -0.169  -0.284  -0.105
    1UNL     C3    3  -0.286  -0.357  -0.085
    1UNL     C4    4  -0.405  -0.299  -0.072
    1UNL     C5    5  -0.417  -0.159  -0.067
    1UNL     C6    6  -0.546  -0.096  -0.027
    1UNL     C7    7  -0.668  -0.173  -0.067
    1UNL     C8    8  -0.556  -0.047   0.121
    1UNL     C9    9  -0.301  -0.089  -0.080
    1UNL    C10   10  -0.172  -0.146  -0.099
    1UNL     O1   11  -0.059  -0.070  -0.112
    1UNL    C11   12  -0.072   0.074  -0.063
    1UNL     O2   13  -0.175   0.139  -0.139
    1UNL    C12   14  -0.171   0.280  -0.122
    1UNL    C13   15  -0.314   0.344  -0.166
    1UNL     O3   16  -0.390   0.401  -0.062
    1UNL    C14   17  -0.431   0.307   0.020
    1UNL     O4   18  -0.432   0.194  -0.009
    1UNL    C15   19  -0.474   0.349   0.154
    1UNL    C16   20  -0.405   0.263   0.263
    1UNL     O5   21  -0.465   0.179   0.320
    1UNL     O6   22  -0.279   0.296   0.301
    1UNL    C17   23  -0.047   0.325  -0.209
    1UNL     O7   24  -0.094   0.359  -0.336
    1UNL    C18   25   0.057   0.212  -0.221
    1UNL     O8   26   0.011   0.115  -0.315
    1UNL    C19   27   0.070   0.138  -0.085
    1UNL     O9   28   0.177   0.033  -0.086
    1UNL    C20   29   0.182  -0.035   0.037
    1UNL    O10   30   0.210   0.046   0.148
    1UNL    C21   31   0.344   0.073   0.178
    1UNL    C22   32   0.411   0.166   0.071
    1UNL    O11   33   0.548   0.174   0.087
    1UNL    C23   34   0.620   0.107  -0.013
    1UNL    O12   35   0.566   0.067  -0.114
    1UNL    C24   36   0.758   0.074   0.021
    1UNL    C25   37   0.794  -0.065   0.074
    1UNL    O13   38   0.718  -0.145   0.128
    1UNL    O14   39   0.922  -0.099   0.059
    1UNL    C26   40   0.425  -0.063   0.182
    1UNL    O15   41   0.385  -0.138   0.288
    1UNL    C27   42   0.405  -0.155   0.054
    1UNL    O16   43   0.467  -0.280   0.080
    1UNL    C28   44   0.254  -0.167   0.024
    1UNL    O17   45   0.190  -0.262   0.111
    1UNL     H1   46  -0.052  -0.452  -0.097
    1UNL     H2   47   0.014  -0.338  -0.208
    1UNL     H3   48   0.022  -0.294  -0.044
    1UNL     H4   49  -0.287  -0.466  -0.091
    1UNL     H5   50  -0.497  -0.347  -0.087
    1UNL     H6   51  -0.552   0.001  -0.081
    1UNL     H7   52  -0.764  -0.119  -0.068
    1UNL     H8   53  -0.688  -0.262  -0.007
    1UNL     H9   54  -0.660  -0.210  -0.169
    1UNL    H10   55  -0.511  -0.124   0.189
    1UNL    H11   56  -0.665  -0.029   0.144
    1UNL    H12   57  -0.496   0.049   0.142
    1UNL    H13   58  -0.302   0.019  -0.074
    1UNL    H14   59  -0.099   0.088   0.049
    1UNL    H15   60  -0.156   0.300  -0.013
    1UNL    H16   61  -0.378   0.267  -0.214
    1UNL    H17   62  -0.293   0.421  -0.239
    1UNL    H18   63  -0.441   0.451   0.169
    1UNL    H19   64  -0.583   0.332   0.162
    1UNL    H20   65  -0.246   0.237   0.367
    1UNL    H21   66  -0.011   0.425  -0.176
    1UNL    H22   67  -0.117   0.269  -0.375
    1UNL    H23   68   0.151   0.240  -0.263
    1UNL    H24   69  -0.002   0.029  -0.267
    1UNL    H25   70   0.090   0.206  -0.006
    1UNL    H26   71   0.074  -0.069   0.056
    1UNL    H27   72   0.337   0.115   0.276
    1UNL    H28   73   0.385   0.136  -0.025
    1UNL    H29   74   0.370   0.267   0.088
    1UNL    H30   75   0.817   0.082  -0.073
    1UNL    H31   76   0.792   0.147   0.091
    1UNL    H32   77   0.911  -0.193   0.088
    1UNL    H33   78   0.532  -0.034   0.181
    1UNL    H34   79   0.288  -0.160   0.296
    1UNL    H35   80   0.460  -0.114  -0.035
    1UNL    H36   81   0.562  -0.260   0.116
    1UNL    H37   82   0.233  -0.208  -0.078
    1UNL    H38   83   0.254  -0.340   0.113
   0.00000   0.00000   0.00000   0.00000   0.00000   0.00000   0.00000   0.00000   0.00000
Generated with MDTraj, t= 93.0
 83
    1UNL     C1    1  -0.040  -0.346  -0.098
    1UNL     C2    2  -0.175  -0.287  -0.092
    1UNL     C3    3  -0.287  -0.371  -0.081
    1UNL     C4    4  -0.409  -0.314  -0.081
    1UNL     C5    5  -0.434  -0.178  -0.088
    1UNL     C6    6  -0.568  -0.116  -0.067
    1UNL     C7    7  -0.685  -0.209  -0.075
    1UNL     C8    8  -0.582  -0.040   0.074
    1UNL     C9    9  -0.324  -0.101  -0.101
    1UNL    C10   10  -0.192  -0.148  -0.098
    1UNL     O1   11  -0.076  -0.078  -0.121
    1UNL    C11   12  -0.073   0.062  -0.071
    1UNL     O2   13  -0.175   0.142  -0.131
    1UNL    C12   14  -0.145   0.287  -0.123
    1UNL    C13   15  -0.271   0.382  -0.136
    1UNL     O3   16  -0.320   0.409  -0.009
    1UNL    C14   17  -0.408   0.308   0.042
    1UNL     O4   18  -0.428   0.204  -0.014
    1UNL    C15   19  -0.478   0.353   0.169
    1UNL    C16   20  -0.423   0.287   0.290
    1UNL     O5   21  -0.477   0.184   0.321
    1UNL     O6   22  -0.308   0.331   0.348
    1UNL    C17   23  -0.032   0.318  -0.225
    1UNL     O7   24  -0.086   0.329  -0.354
    1UNL    C18   25   0.068   0.198  -0.225
    1UNL     O8   26   0.022   0.102  -0.321
    1UNL    C19   27   0.065   0.126  -0.085
    1UNL     O9   28   0.172   0.028  -0.073
    1UNL    C20   29   0.171  -0.036   0.056
    1UNL    O10   30   0.217   0.050   0.164
    1UNL    C21   31   0.356   0.074   0.170
    1UNL    C22   32   0.405   0.169   0.057
    1UNL    O11   33   0.550   0.179   0.064
    1UNL    C23   34   0.611   0.093  -0.019
    1UNL    O12   35   0.555   0.029  -0.105
    1UNL    C24   36   0.764   0.082   0.004
    1UNL    C25   37   0.791  -0.050   0.068
    1UNL    O13   38   0.703  -0.137   0.069
    1UNL    O14   39   0.916  -0.060   0.109
    1UNL    C26   40   0.431  -0.062   0.182
    1UNL    O15   41   0.393  -0.131   0.298
    1UNL    C27   42   0.411  -0.141   0.054
    1UNL    O16   43   0.477  -0.266   0.054
    1UNL    C28   44   0.257  -0.161   0.032
    1UNL    O17   45   0.201  -0.267   0.104
    1UNL     H1   46  -0.033  -0.395  -0.197
    1UNL     H2   47   0.043  -0.284  -0.082
    1UNL     H3   48  -0.039  -0.416  -0.018
    1UNL     H4   49  -0.272  -0.475  -0.104
    1UNL     H5   50  -0.495  -0.383  -0.088
    1UNL     H6   51  -0.580  -0.043  -0.148
    1UNL     H7   52  -0.778  -0.161  -0.049
    1UNL     H8   53  -0.666  -0.289   0.001
    1UNL     H9   54  -0.702  -0.259  -0.171
    1UNL    H10   55  -0.606  -0.115   0.156
    1UNL    H11   56  -0.667   0.034   0.067
    1UNL    H12   57  -0.489   0.014   0.108
    1UNL    H13   58  -0.330   0.005  -0.111
    1UNL    H14   59  -0.112   0.065   0.037
    1UNL    H15   60  -0.105   0.299  -0.017
    1UNL    H16   61  -0.350   0.335  -0.199
    1UNL    H17   62  -0.237   0.471  -0.183
    1UNL    H18   63  -0.464   0.460   0.176
    1UNL    H19   64  -0.583   0.313   0.174
    1UNL    H20   65  -0.300   0.281   0.429
    1UNL    H21   66   0.008   0.421  -0.217
    1UNL    H22   67  -0.109   0.236  -0.382
    1UNL    H23   68   0.173   0.219  -0.241
    1UNL    H24   69  -0.000   0.024  -0.266
    1UNL    H25   70   0.076   0.188  -0.002
    1UNL    H26   71   0.063  -0.063   0.080
    1UNL    H27   72   0.379   0.112   0.268
    1UNL    H28   73   0.374   0.132  -0.036
    1UNL    H29   74   0.364   0.271   0.081
    1UNL    H30   75   0.824   0.090  -0.084
    1UNL    H31   76   0.795   0.162   0.073
    1UNL    H32   77   0.944  -0.154   0.126
    1UNL    H33   78   0.542  -0.047   0.183
    1UNL    H34   79   0.297  -0.139   0.303
    1UNL    H35   80   0.458  -0.092  -0.035
    1UNL    H36   81   0.566  -0.249   0.076
    1UNL    H37   82   0.251  -0.191  -0.073
    1UNL    H38   83   0.269  -0.306   0.158
   0.00000   0.00000   0.00000   0.00000   0.00000   0.00000   0.00000   0.00000   0.00000
Generated with MDTraj, t= 94.0
 83
    1UNL     C1    1  -0.034  -0.334  -0.097
    1UNL     C2    2  -0.176  -0.284  -0.087
    1UNL     C3    3  -0.292  -0.362  -0.072
    1UNL     C4    4  -0.420  -0.304  -0.067
    1UNL     C5    5  -0.429  -0.165  -0.076
    1UNL     C6    6  -0.573  -0.103  -0.073
    1UNL     C7    7  -0.690  -0.203  -0.099
    1UNL     C8    8  -0.598  -0.014   0.048
    1UNL     C9    9  -0.313  -0.087  -0.084
    1UNL    C10   10  -0.188  -0.146  -0.084
    1UNL     O1   11  -0.071  -0.073  -0.109
    1UNL    C11   12  -0.068   0.058  -0.046
    1UNL     O2   13  -0.173   0.145  -0.098
    1UNL    C12   14  -0.127   0.281  -0.111
    1UNL    C13   15  -0.250   0.374  -0.115
    1UNL     O3   16  -0.305   0.405   0.013
    1UNL    C14   17  -0.409   0.327   0.046
    1UNL     O4   18  -0.453   0.235  -0.019
    1UNL    C15   19  -0.487   0.364   0.172
    1UNL    C16   20  -0.433   0.281   0.290
    1UNL     O5   21  -0.463   0.165   0.295
    1UNL     O6   22  -0.358   0.339   0.386
    1UNL    C17   23  -0.029   0.301  -0.231
    1UNL     O7   24  -0.077   0.306  -0.365
    1UNL    C18   25   0.078   0.192  -0.222
    1UNL     O8   26   0.056   0.098  -0.326
    1UNL    C19   27   0.073   0.111  -0.081
    1UNL     O9   28   0.168   0.005  -0.095
    1UNL    C20   29   0.170  -0.063   0.033
    1UNL    O10   30   0.195   0.029   0.139
    1UNL    C21   31   0.334   0.066   0.158
    1UNL    C22   32   0.395   0.148   0.047
    1UNL    O11   33   0.540   0.144   0.069
    1UNL    C23   34   0.607   0.096  -0.041
    1UNL    O12   35   0.555   0.063  -0.147
    1UNL    C24   36   0.757   0.085  -0.032
    1UNL    C25   37   0.801  -0.026   0.055
    1UNL    O13   38   0.752  -0.142   0.063
    1UNL    O14   39   0.904   0.002   0.142
    1UNL    C26   40   0.427  -0.063   0.169
    1UNL    O15   41   0.389  -0.132   0.288
    1UNL    C27   42   0.400  -0.158   0.044
    1UNL    O16   43   0.477  -0.272   0.067
    1UNL    C28   44   0.248  -0.194   0.040
    1UNL    O17   45   0.216  -0.276   0.148
    1UNL     H1   46   0.026  -0.257  -0.142
    1UNL     H2   47   0.010  -0.378  -0.001
    1UNL     H3   48  -0.028  -0.412  -0.165
    1UNL     H4   49  -0.282  -0.469  -0.085
    1UNL     H5   50  -0.503  -0.367  -0.085
    1UNL     H6   51  -0.582  -0.042  -0.164
    1UNL     H7   52  -0.788  -0.160  -0.106
    1UNL     H8   53  -0.680  -0.281  -0.019
    1UNL     H9   54  -0.664  -0.250  -0.195
    1UNL    H10   55  -0.573  -0.068   0.147
    1UNL    H11   56  -0.708   0.016   0.058
    1UNL    H12   57  -0.542   0.082   0.053
    1UNL    H13   58  -0.337   0.017  -0.101
    1UNL    H14   59  -0.083   0.060   0.066
    1UNL    H15   60  -0.069   0.291  -0.013
    1UNL    H16   61  -0.325   0.314  -0.174
    1UNL    H17   62  -0.221   0.456  -0.177
    1UNL    H18   63  -0.466   0.465   0.202
    1UNL    H19   64  -0.595   0.339   0.154
    1UNL    H20   65  -0.330   0.271   0.450
    1UNL    H21   66   0.017   0.402  -0.229
    1UNL    H22   67  -0.069   0.215  -0.395
    1UNL    H23   68   0.176   0.246  -0.229
    1UNL    H24   69   0.115   0.021  -0.307
    1UNL    H25   70   0.117   0.176  -0.013
    1UNL    H26   71   0.058  -0.081   0.048
    1UNL    H27   72   0.352   0.114   0.255
    1UNL    H28   73   0.377   0.101  -0.049
    1UNL    H29   74   0.365   0.258   0.053
    1UNL    H30   75   0.784   0.068  -0.131
    1UNL    H31   76   0.809   0.179  -0.001
    1UNL    H32   77   0.912  -0.068   0.210
    1UNL    H33   78   0.533  -0.030   0.176
    1UNL    H34   79   0.297  -0.116   0.308
    1UNL    H35   80   0.430  -0.098  -0.043
    1UNL    H36   81   0.576  -0.243   0.057
    1UNL    H37   82   0.227  -0.248  -0.049
    1UNL    H38   83   0.288  -0.346   0.159
   0.00000   0.00000   0.00000   0.00000   0.00000   0.00000   0.00000   0.00000   0.00000
Generated with MDTraj, t= 95.0
 83
    1UNL     C1    1  -0.063  -0.366  -0.095
    1UNL     C2    2  -0.191  -0.291  -0.087
    1UNL     C3    3  -0.309  -0.350  -0.057
    1UNL     C4    4  -0.428  -0.279  -0.049
    1UNL     C5    5  -0.433  -0.140  -0.067
    1UNL     C6    6  -0.557  -0.057  -0.064
    1UNL     C7    7  -0.676  -0.141  -0.112
    1UNL     C8    8  -0.587   0.008   0.074
    1UNL     C9    9  -0.309  -0.074  -0.074
    1UNL    C10   10  -0.190  -0.148  -0.084
    1UNL     O1   11  -0.063  -0.092  -0.111
    1UNL    C11   12  -0.048   0.039  -0.048
    1UNL     O2   13  -0.156   0.136  -0.078
    1UNL    C12   14  -0.117   0.276  -0.098
    1UNL    C13   15  -0.243   0.370  -0.118
    1UNL     O3   16  -0.303   0.411   0.003
    1UNL    C14   17  -0.422   0.342   0.026
    1UNL     O4   18  -0.471   0.264  -0.055
    1UNL    C15   19  -0.484   0.364   0.162
    1UNL    C16   20  -0.443   0.264   0.272
    1UNL     O5   21  -0.444   0.142   0.249
    1UNL     O6   22  -0.409   0.307   0.400
    1UNL    C17   23  -0.020   0.298  -0.222
    1UNL     O7   24  -0.102   0.282  -0.339
    1UNL    C18   25   0.090   0.188  -0.208
    1UNL     O8   26   0.055   0.104  -0.313
    1UNL    C19   27   0.088   0.101  -0.077
    1UNL     O9   28   0.193   0.009  -0.074
    1UNL    C20   29   0.189  -0.074   0.043
    1UNL    O10   30   0.214   0.005   0.161
    1UNL    C21   31   0.355   0.052   0.166
    1UNL    C22   32   0.397   0.133   0.037
    1UNL    O11   33   0.536   0.164   0.037
    1UNL    C23   34   0.587   0.102  -0.071
    1UNL    O12   35   0.530   0.052  -0.166
    1UNL    C24   36   0.731   0.073  -0.059
    1UNL    C25   37   0.773  -0.002   0.060
    1UNL    O13   38   0.733  -0.116   0.068
    1UNL    O14   39   0.847   0.063   0.145
    1UNL    C26   40   0.435  -0.075   0.188
    1UNL    O15   41   0.387  -0.152   0.292
    1UNL    C27   42   0.432  -0.166   0.059
    1UNL    O16   43   0.513  -0.281   0.082
    1UNL    C28   44   0.280  -0.200   0.024
    1UNL    O17   45   0.239  -0.302   0.115
    1UNL     H1   46   0.020  -0.314  -0.052
    1UNL     H2   47  -0.070  -0.473  -0.056
    1UNL     H3   48  -0.029  -0.372  -0.193
    1UNL     H4   49  -0.317  -0.457  -0.048
    1UNL     H5   50  -0.513  -0.348  -0.054
    1UNL     H6   51  -0.539   0.016  -0.143
    1UNL     H7   52  -0.760  -0.082  -0.142
    1UNL     H8   53  -0.694  -0.215  -0.029
    1UNL     H9   54  -0.639  -0.198  -0.200
    1UNL    H10   55  -0.605  -0.075   0.150
    1UNL    H11   56  -0.680   0.076   0.073
    1UNL    H12   57  -0.499   0.070   0.105
    1UNL    H13   58  -0.319   0.033  -0.083
    1UNL    H14   59  -0.053   0.027   0.061
    1UNL    H15   60  -0.078   0.306   0.003
    1UNL    H16   61  -0.319   0.319  -0.187
    1UNL    H17   62  -0.215   0.461  -0.166
    1UNL    H18   63  -0.457   0.465   0.195
    1UNL    H19   64  -0.592   0.347   0.146
    1UNL    H20   65  -0.368   0.232   0.452
    1UNL    H21   66   0.029   0.396  -0.238
    1UNL    H22   67  -0.103   0.183  -0.345
    1UNL    H23   68   0.197   0.227  -0.227
    1UNL    H24   69   0.096   0.017  -0.299
    1UNL    H25   70   0.118   0.164   0.002
    1UNL    H26   71   0.082  -0.110   0.048
    1UNL    H27   72   0.355   0.117   0.258
    1UNL    H28   73   0.379   0.074  -0.056
    1UNL    H29   74   0.338   0.231   0.037
    1UNL    H30   75   0.770   0.026  -0.143
    1UNL    H31   76   0.775   0.176  -0.061
    1UNL    H32   77   0.860   0.012   0.227
    1UNL    H33   78   0.541  -0.056   0.206
    1UNL    H34   79   0.318  -0.218   0.263
    1UNL    H35   80   0.481  -0.113  -0.019
    1UNL    H36   81   0.597  -0.254   0.112
    1UNL    H37   82   0.277  -0.250  -0.069
    1UNL    H38   83   0.321  -0.346   0.141
   0.00000   0.00000   0.00000   0.00000   0.00000   0.00000   0.00000   0.00000   0.00000
Generated with MDTraj, t= 96.0
 83
    1UNL     C1    1  -0.087  -0.350  -0.078
    1UNL     C2    2  -0.214  -0.285  -0.071
    1UNL     C3    3  -0.340  -0.338  -0.043
    1UNL     C4    4  -0.452  -0.257  -0.054
    1UNL     C5    5  -0.433  -0.124  -0.072
    1UNL     C6    6  -0.554  -0.032  -0.071
    1UNL     C7    7  -0.676  -0.078  -0.152
    1UNL     C8    8  -0.594   0.002   0.079
    1UNL     C9    9  -0.308  -0.070  -0.078
    1UNL    C10   10  -0.195  -0.146  -0.072
    1UNL     O1   11  -0.064  -0.092  -0.082
    1UNL    C11   12  -0.046   0.039  -0.031
    1UNL     O2   13  -0.141   0.135  -0.084
    1UNL    C12   14  -0.101   0.268  -0.094
    1UNL    C13   15  -0.227   0.365  -0.104
    1UNL     O3   16  -0.294   0.368   0.021
    1UNL    C14   17  -0.423   0.326   0.020
    1UNL     O4   18  -0.485   0.261  -0.064
    1UNL    C15   19  -0.497   0.348   0.158
    1UNL    C16   20  -0.444   0.264   0.272
    1UNL     O5   21  -0.394   0.159   0.232
    1UNL     O6   22  -0.449   0.299   0.397
    1UNL    C17   23  -0.006   0.279  -0.215
    1UNL     O7   24  -0.071   0.270  -0.336
    1UNL    C18   25   0.092   0.165  -0.202
    1UNL     O8   26   0.054   0.066  -0.300
    1UNL    C19   27   0.093   0.089  -0.064
    1UNL     O9   28   0.185  -0.014  -0.077
    1UNL    C20   29   0.197  -0.087   0.037
    1UNL    O10   30   0.218  -0.007   0.151
    1UNL    C21   31   0.350   0.044   0.163
    1UNL    C22   32   0.383   0.149   0.052
    1UNL    O11   33   0.528   0.165   0.040
    1UNL    C23   34   0.576   0.092  -0.067
    1UNL    O12   35   0.496   0.043  -0.145
    1UNL    C24   36   0.723   0.064  -0.082
    1UNL    C25   37   0.766   0.011   0.054
    1UNL    O13   38   0.745  -0.101   0.092
    1UNL    O14   39   0.806   0.113   0.141
    1UNL    C26   40   0.455  -0.066   0.175
    1UNL    O15   41   0.439  -0.142   0.291
    1UNL    C27   42   0.446  -0.159   0.050
    1UNL    O16   43   0.528  -0.272   0.068
    1UNL    C28   44   0.298  -0.202   0.014
    1UNL    O17   45   0.260  -0.326   0.071
    1UNL     H1   46  -0.046  -0.358   0.020
    1UNL     H2   47  -0.099  -0.450  -0.123
    1UNL     H3   48  -0.017  -0.280  -0.128
    1UNL     H4   49  -0.347  -0.446  -0.042
    1UNL     H5   50  -0.554  -0.295  -0.057
    1UNL     H6   51  -0.517   0.061  -0.117
    1UNL     H7   52  -0.748   0.004  -0.162
    1UNL     H8   53  -0.721  -0.167  -0.106
    1UNL     H9   54  -0.651  -0.104  -0.257
    1UNL    H10   55  -0.506  -0.031   0.142
    1UNL    H11   56  -0.684  -0.059   0.113
    1UNL    H12   57  -0.615   0.113   0.095
    1UNL    H13   58  -0.302   0.038  -0.084
    1UNL    H14   59  -0.072   0.030   0.074
    1UNL    H15   60  -0.054   0.306  -0.003
    1UNL    H16   61  -0.307   0.336  -0.180
    1UNL    H17   62  -0.193   0.465  -0.125
    1UNL    H18   63  -0.488   0.455   0.182
    1UNL    H19   64  -0.601   0.322   0.144
    1UNL    H20   65  -0.398   0.231   0.451
    1UNL    H21   66   0.040   0.379  -0.221
    1UNL    H22   67  -0.102   0.178  -0.344
    1UNL    H23   68   0.198   0.200  -0.233
    1UNL    H24   69  -0.021   0.014  -0.262
    1UNL    H25   70   0.128   0.134   0.028
    1UNL    H26   71   0.095  -0.134   0.050
    1UNL    H27   72   0.351   0.102   0.262
    1UNL    H28   73   0.343   0.110  -0.047
    1UNL    H29   74   0.337   0.254   0.064
    1UNL    H30   75   0.740  -0.004  -0.164
    1UNL    H31   76   0.776   0.156  -0.111
    1UNL    H32   77   0.794   0.079   0.230
    1UNL    H33   78   0.555  -0.023   0.173
    1UNL    H34   79   0.356  -0.194   0.298
    1UNL    H35   80   0.479  -0.105  -0.035
    1UNL    H36   81   0.614  -0.225   0.101
    1UNL    H37   82   0.290  -0.233  -0.090
    1UNL    H38   83   0.342  -0.384   0.065
   0.00000   0.00000   0.00000   0.00000   0.00000   0.00000   0.00000   0.00000   0.00000
Generated with MDTraj, t= 97.0
 83
    1UNL     C1    1  -0.109  -0.365  -0.030
    1UNL     C2    2  -0.230  -0.280  -0.063
    1UNL     C3    3  -0.359  -0.328  -0.085
    1UNL     C4    4  -0.463  -0.242  -0.076
    1UNL     C5    5  -0.448  -0.104  -0.066
    1UNL     C6    6  -0.564  -0.007  -0.058
    1UNL     C7    7  -0.652  -0.044  -0.173
    1UNL     C8    8  -0.640  -0.029   0.071
    1UNL     C9    9  -0.319  -0.058  -0.051
    1UNL    C10   10  -0.210  -0.145  -0.051
    1UNL     O1   11  -0.080  -0.105  -0.049
    1UNL    C11   12  -0.043   0.037  -0.026
    1UNL     O2   13  -0.151   0.133  -0.061
    1UNL    C12   14  -0.099   0.267  -0.087
    1UNL    C13   15  -0.215   0.368  -0.112
    1UNL     O3   16  -0.292   0.383   0.012
    1UNL    C14   17  -0.410   0.318   0.015
    1UNL     O4   18  -0.462   0.264  -0.082
    1UNL    C15   19  -0.490   0.330   0.143
    1UNL    C16   20  -0.436   0.255   0.265
    1UNL     O5   21  -0.362   0.156   0.256
    1UNL     O6   22  -0.475   0.295   0.395
    1UNL    C17   23   0.002   0.275  -0.213
    1UNL     O7   24  -0.062   0.307  -0.338
    1UNL    C18   25   0.081   0.147  -0.223
    1UNL     O8   26   0.016   0.065  -0.318
    1UNL    C19   27   0.097   0.075  -0.084
    1UNL     O9   28   0.187  -0.041  -0.090
    1UNL    C20   29   0.200  -0.111   0.034
    1UNL    O10   30   0.219  -0.030   0.152
    1UNL    C21   31   0.348   0.024   0.159
    1UNL    C22   32   0.378   0.123   0.046
    1UNL    O11   33   0.510   0.166   0.043
    1UNL    C23   34   0.568   0.106  -0.066
    1UNL    O12   35   0.506   0.057  -0.159
    1UNL    C24   36   0.719   0.103  -0.066
    1UNL    C25   37   0.771   0.040   0.062
    1UNL    O13   38   0.772  -0.078   0.078
    1UNL    O14   39   0.822   0.132   0.149
    1UNL    C26   40   0.455  -0.083   0.164
    1UNL    O15   41   0.444  -0.164   0.275
    1UNL    C27   42   0.455  -0.168   0.032
    1UNL    O16   43   0.550  -0.275   0.041
    1UNL    C28   44   0.312  -0.222   0.033
    1UNL    O17   45   0.280  -0.303   0.143
    1UNL     H1   46  -0.120  -0.411   0.067
    1UNL     H2   47  -0.115  -0.454  -0.089
    1UNL     H3   48  -0.016  -0.298  -0.030
    1UNL     H4   49  -0.374  -0.432  -0.107
    1UNL     H5   50  -0.558  -0.279  -0.097
    1UNL     H6   51  -0.520   0.092  -0.059
    1UNL     H7   52  -0.741   0.023  -0.178
    1UNL     H8   53  -0.687  -0.146  -0.171
    1UNL     H9   54  -0.604  -0.028  -0.271
    1UNL    H10   55  -0.688   0.064   0.117
    1UNL    H11   56  -0.573  -0.067   0.153
    1UNL    H12   57  -0.726  -0.103   0.055
    1UNL    H13   58  -0.296   0.043  -0.064
    1UNL    H14   59  -0.037   0.049   0.078
    1UNL    H15   60  -0.046   0.298   0.002
    1UNL    H16   61  -0.282   0.320  -0.192
    1UNL    H17   62  -0.177   0.466  -0.139
    1UNL    H18   63  -0.506   0.438   0.167
    1UNL    H19   64  -0.586   0.288   0.116
    1UNL    H20   65  -0.431   0.225   0.453
    1UNL    H21   66   0.068   0.362  -0.198
    1UNL    H22   67  -0.111   0.227  -0.367
    1UNL    H23   68   0.183   0.169  -0.273
    1UNL    H24   69   0.032  -0.026  -0.287
    1UNL    H25   70   0.147   0.147  -0.021
    1UNL    H26   71   0.100  -0.158   0.053
    1UNL    H27   72   0.368   0.079   0.258
    1UNL    H28   73   0.354   0.077  -0.057
    1UNL    H29   74   0.306   0.212   0.048
    1UNL    H30   75   0.745   0.031  -0.150
    1UNL    H31   76   0.777   0.191  -0.086
    1UNL    H32   77   0.868   0.076   0.213
    1UNL    H33   78   0.555  -0.040   0.168
    1UNL    H34   79   0.358  -0.205   0.284
    1UNL    H35   80   0.461  -0.110  -0.057
    1UNL    H36   81   0.625  -0.223   0.066
    1UNL    H37   82   0.296  -0.289  -0.055
    1UNL    H38   83   0.345  -0.376   0.140
   0.00000   0.00000   0.00000   0.00000   0.00000   0.00000   0.00000   0.00000   0.00000
Generated with MDTraj, t= 98.0
 83
    1UNL     C1    1  -0.128  -0.380  -0.059
    1UNL     C2    2  -0.247  -0.288  -0.056
    1UNL     C3    3  -0.377  -0.330  -0.059
    1UNL     C4    4  -0.480  -0.240  -0.056
    1UNL     C5    5  -0.456  -0.103  -0.050
    1UNL     C6    6  -0.577  -0.005  -0.043
    1UNL     C7    7  -0.632   0.020  -0.185
    1UNL     C8    8  -0.681  -0.053   0.054
    1UNL     C9    9  -0.325  -0.059  -0.045
    1UNL    C10   10  -0.216  -0.150  -0.038
    1UNL     O1   11  -0.081  -0.124  -0.034
    1UNL    C11   12  -0.055   0.017  -0.010
    1UNL     O2   13  -0.147   0.115  -0.075
    1UNL    C12   14  -0.098   0.253  -0.080
    1UNL    C13   15  -0.193   0.361  -0.101
    1UNL     O3   16  -0.267   0.378   0.021
    1UNL    C14   17  -0.389   0.315   0.010
    1UNL     O4   18  -0.419   0.247  -0.089
    1UNL    C15   19  -0.471   0.345   0.133
    1UNL    C16   20  -0.438   0.249   0.242
    1UNL     O5   21  -0.386   0.149   0.208
    1UNL     O6   22  -0.465   0.279   0.364
    1UNL    C17   23   0.014   0.258  -0.193
    1UNL     O7   24  -0.039   0.308  -0.310
    1UNL    C18   25   0.077   0.114  -0.205
    1UNL     O8   26  -0.019   0.035  -0.284
    1UNL    C19   27   0.081   0.055  -0.059
    1UNL     O9   28   0.163  -0.057  -0.077
    1UNL    C20   29   0.194  -0.109   0.049
    1UNL    O10   30   0.222  -0.014   0.152
    1UNL    C21   31   0.352   0.043   0.147
    1UNL    C22   32   0.378   0.139   0.032
    1UNL    O11   33   0.517   0.168   0.046
    1UNL    C23   34   0.592   0.136  -0.060
    1UNL    O12   35   0.544   0.088  -0.156
    1UNL    C24   36   0.739   0.151  -0.055
    1UNL    C25   37   0.789   0.056   0.054
    1UNL    O13   38   0.766  -0.060   0.046
    1UNL    O14   39   0.866   0.113   0.148
    1UNL    C26   40   0.447  -0.073   0.154
    1UNL    O15   41   0.418  -0.141   0.269
    1UNL    C27   42   0.431  -0.161   0.018
    1UNL    O16   43   0.534  -0.261   0.023
    1UNL    C28   44   0.293  -0.223   0.034
    1UNL    O17   45   0.282  -0.321   0.137
    1UNL     H1   46  -0.111  -0.415   0.044
    1UNL     H2   47  -0.134  -0.469  -0.111
    1UNL     H3   48  -0.033  -0.321  -0.088
    1UNL     H4   49  -0.392  -0.436  -0.078
    1UNL     H5   50  -0.588  -0.265  -0.072
    1UNL     H6   51  -0.538   0.087   0.001
    1UNL     H7   52  -0.719   0.091  -0.178
    1UNL     H8   53  -0.663  -0.071  -0.231
    1UNL     H9   54  -0.561   0.073  -0.251
    1UNL    H10   55  -0.717  -0.159   0.033
    1UNL    H11   56  -0.777   0.008   0.051
    1UNL    H12   57  -0.645  -0.060   0.161
    1UNL    H13   58  -0.304   0.048  -0.043
    1UNL    H14   59  -0.053   0.036   0.093
    1UNL    H15   60  -0.048   0.256   0.013
    1UNL    H16   61  -0.262   0.337  -0.191
    1UNL    H17   62  -0.135   0.451  -0.108
    1UNL    H18   63  -0.443   0.447   0.169
    1UNL    H19   64  -0.577   0.346   0.110
    1UNL    H20   65  -0.437   0.201   0.418
    1UNL    H21   66   0.094   0.325  -0.157
    1UNL    H22   67  -0.105   0.240  -0.344
    1UNL    H23   68   0.180   0.111  -0.251
    1UNL    H24   69  -0.058  -0.027  -0.217
    1UNL    H25   70   0.133   0.128   0.004
    1UNL    H26   71   0.095  -0.149   0.079
    1UNL    H27   72   0.364   0.091   0.249
    1UNL    H28   73   0.353   0.099  -0.072
    1UNL    H29   74   0.324   0.237   0.048
    1UNL    H30   75   0.797   0.119  -0.149
    1UNL    H31   76   0.761   0.253  -0.042
    1UNL    H32   77   0.896   0.039   0.203
    1UNL    H33   78   0.552  -0.040   0.159
    1UNL    H34   79   0.320  -0.167   0.268
    1UNL    H35   80   0.436  -0.102  -0.070
    1UNL    H36   81   0.622  -0.214   0.012
    1UNL    H37   82   0.276  -0.280  -0.064
    1UNL    H38   83   0.361  -0.375   0.115
   0.00000   0.00000   0.00000   0.00000   0.00000   0.00000   0.00000   0.00000   0.00000
Generated with MDTraj, t= 99.0
 83
    1UNL     C1    1  -0.151  -0.380  -0.091
    1UNL     C2    2  -0.263  -0.284  -0.063
    1UNL     C3    3  -0.392  -0.330  -0.053
    1UNL     C4    4  -0.496  -0.239  -0.036
    1UNL     C5    5  -0.471  -0.103  -0.015
    1UNL     C6    6  -0.587  -0.002  -0.015
    1UNL     C7    7  -0.598   0.064  -0.156
    1UNL     C8    8  -0.728  -0.054   0.029
    1UNL     C9    9  -0.339  -0.056  -0.003
    1UNL    C10   10  -0.234  -0.147  -0.040
    1UNL     O1   11  -0.101  -0.102  -0.063
    1UNL    C11   12  -0.057   0.026  -0.019
    1UNL     O2   13  -0.144   0.136  -0.054
    1UNL    C12   14  -0.079   0.274  -0.079
    1UNL    C13   15  -0.195   0.371  -0.110
    1UNL     O3   16  -0.281   0.400   0.001
    1UNL    C14   17  -0.388   0.322  -0.004
    1UNL     O4   18  -0.422   0.261  -0.100
    1UNL    C15   19  -0.468   0.331   0.122
    1UNL    C16   20  -0.456   0.221   0.223
    1UNL     O5   21  -0.456   0.107   0.194
    1UNL     O6   22  -0.438   0.249   0.361
    1UNL    C17   23   0.009   0.252  -0.207
    1UNL     O7   24  -0.041   0.292  -0.331
    1UNL    C18   25   0.071   0.115  -0.207
    1UNL     O8   26  -0.017   0.036  -0.287
    1UNL    C19   27   0.088   0.046  -0.070
    1UNL     O9   28   0.170  -0.077  -0.077
    1UNL    C20   29   0.200  -0.126   0.051
    1UNL    O10   30   0.225  -0.032   0.156
    1UNL    C21   31   0.353   0.037   0.152
    1UNL    C22   32   0.374   0.137   0.042
    1UNL    O11   33   0.505   0.190   0.053
    1UNL    C23   34   0.595   0.151  -0.052
    1UNL    O12   35   0.548   0.091  -0.147
    1UNL    C24   36   0.735   0.175  -0.022
    1UNL    C25   37   0.792   0.052   0.044
    1UNL    O13   38   0.740  -0.056   0.035
    1UNL    O14   39   0.908   0.071   0.111
    1UNL    C26   40   0.468  -0.063   0.159
    1UNL    O15   41   0.466  -0.122   0.283
    1UNL    C27   42   0.458  -0.162   0.038
    1UNL    O16   43   0.558  -0.262   0.047
    1UNL    C28   44   0.318  -0.227   0.043
    1UNL    O17   45   0.311  -0.326   0.145
    1UNL     H1   46  -0.105  -0.408   0.008
    1UNL     H2   47  -0.167  -0.466  -0.148
    1UNL     H3   48  -0.070  -0.334  -0.156
    1UNL     H4   49  -0.418  -0.434  -0.066
    1UNL     H5   50  -0.592  -0.266  -0.063
    1UNL     H6   51  -0.561   0.069   0.060
    1UNL     H7   52  -0.650   0.162  -0.141
    1UNL     H8   53  -0.655  -0.004  -0.218
    1UNL     H9   54  -0.501   0.086  -0.201
    1UNL    H10   55  -0.752  -0.013   0.132
    1UNL    H11   56  -0.734  -0.169   0.028
    1UNL    H12   57  -0.807  -0.008  -0.039
    1UNL    H13   58  -0.326   0.050   0.005
    1UNL    H14   59  -0.056   0.024   0.084
    1UNL    H15   60  -0.025   0.303   0.010
    1UNL    H16   61  -0.269   0.330  -0.188
    1UNL    H17   62  -0.152   0.464  -0.137
    1UNL    H18   63  -0.450   0.428   0.174
    1UNL    H19   64  -0.574   0.332   0.098
    1UNL    H20   65  -0.440   0.163   0.403
    1UNL    H21   66   0.088   0.329  -0.195
    1UNL    H22   67  -0.094   0.224  -0.373
    1UNL    H23   68   0.169   0.122  -0.258
    1UNL    H24   69  -0.041  -0.042  -0.235
    1UNL    H25   70   0.137   0.111   0.001
    1UNL    H26   71   0.107  -0.179   0.066
    1UNL    H27   72   0.347   0.076   0.254
    1UNL    H28   73   0.377   0.084  -0.056
    1UNL    H29   74   0.302   0.217   0.034
    1UNL    H30   75   0.785   0.189  -0.123
    1UNL    H31   76   0.758   0.259   0.039
    1UNL    H32   77   0.937  -0.017   0.144
    1UNL    H33   78   0.563  -0.004   0.151
    1UNL    H34   79   0.386  -0.178   0.289
    1UNL    H35   80   0.474  -0.099  -0.050
    1UNL    H36   81   0.648  -0.221   0.063
    1UNL    H37   82   0.301  -0.291  -0.051
    1UNL    H38   83   0.394  -0.380   0.132
   0.00000   0.00000   0.00000   0.00000   0.00000   0.00000   0.00000   0.00000   0.00000
