[ moleculetype ]
; name        nrexcl
res           1

[ atoms ]
;    nr  type resnr resid  atom  cgnr     charge       mass
      1 SC4       1 res   C1        1      0.000     54.000
      2 SN6       1 res   C2        2      0.000     54.000
      3 SC5       1 res   C3        3      0.000     54.000
      4 N4a       1 res   C4        4      0.000     72.000
      5 TC5       1 res   C5        5      0.000     36.000
      6 TC5       1 res   C6        6      0.000     36.000
      7 TC5       1 res   C7        7      0.000     36.000
      8 SN6       1 res   C8        8      0.000     54.000
      9 SC4       1 res   C9        9      0.000     54.000
     10 TC3       1 res   C10      10      0.000     36.000
     11 SC4       1 res   C11      11      0.000     54.000
     12 SC4       1 res   C12      12      0.000     54.000
     13 TC3       1 res   C13      13      0.000     36.000
     14 TN6       1 res   C14      14      0.000     36.000
     15 SN4a      1 res   C15      15      0.000     54.000
     16 TN6       1 res   C16      16      0.000     36.000
     17 TN6       1 res   C17      17      0.000     36.000
     18 SN4a      1 res   C18      18      0.000     54.000
     19 TP1       1 res   C19      19      0.000     36.000
     20 TN6       1 res   C20      20      0.000     36.000
     21 TN6       1 res   C21      21      0.000     36.000
     22 TN6       1 res   C22      22      0.000     36.000
     23 TN6       1 res   C23      23      0.000     36.000
     24 SC4       1 res   C24      24      0.000     54.000
     25 TC3       1 res   C25      25      0.000     36.000

[ bonds ]
;  ai    aj   funct      b0(nm)        k
    1     2     1      0.31480    20000
    1     3     1      0.30565    20000
    2     3     1      0.29049    20000
    3     4     1      0.40652    20000
    3     8     1      0.38021    20000
    3     9     1      0.38086    20000
    4     5     1      0.35882    20000
    5     6     1      0.25818    20000
    5     7     1      0.30220    20000
    6     7     1      0.29082    20000
    8     9     1      0.27683    20000
    9    10     1      0.33252    20000
    9    11     1      0.27404    20000
   10    11     1      0.38015    20000
   11    12     1      0.34623    20000
   11    25     1      0.30799    20000
   12    13     1      0.27140    20000
   12    24     1      0.32826    20000
   12    25     1      0.32141    20000
   13    14     1      0.25908    20000
   14    15     1      0.28910    20000
   14    24     1      0.24630    20000
   15    16     1      0.26045    20000
   15    23     1      0.32365    20000
   16    17     1      0.23170    20000
   17    18     1      0.27836    20000
   17    23     1      0.23651    20000
   18    19     1      0.29936    20000
   18    20     1      0.31099    20000
   18    22     1      0.25304    20000
   20    21     1      0.24133    20000
   21    22     1      0.25060    20000
