[ moleculetype ]
; name        nrexcl
res           1

[ atoms ]
;    nr  type resnr resid  atom  cgnr     charge       mass
      1 SC4       1 res   C1        1      0.000     54.000
      2 TC3       1 res   C2        2      0.000     36.000
      3 SC3       1 res   C3        3      0.000     54.000
      4 TC3       1 res   C4        4      0.000     36.000
      5 SC4       1 res   C5        5      0.000     54.000
      6 TC3       1 res   C6        6      0.000     36.000
      7 SC4       1 res   C7        7      0.000     54.000
      8 SC4       1 res   C8        8      0.000     54.000
      9 SC3       1 res   C9        9      0.000     54.000
     10 TN3r      1 res   C10      10      0.000     36.000
     11 SC4       1 res   C11      11      0.000     54.000
     12 TC3       1 res   C12      12      0.000     36.000

[ bonds ]
;  ai    aj   funct      b0(nm)        k
    1     2     1      0.29005    20000
    2     3     1      0.28697    20000
    3     4     1      0.37621    20000
    3     5     1      0.29799    20000
    4     5     1      0.30316    20000
    5     6     1      0.37901    20000
    5     7     1      0.28880    20000
    6     7     1      0.31952    20000
    7     8     1      0.40885    20000
    7    12     1      0.27349    20000
    8     9     1      0.29075    20000
    8    11     1      0.33950    20000
    8    12     1      0.35529    20000
    9    10     1      0.34144    20000
    9    11     1      0.35012    20000
