1TPCN01416
17
    1res  C1    1    0.416  -0.054   0.289
    1res  C2    2    0.667  -0.117   0.268
    1res  C3    3    0.691  -0.233   0.025
    1res  C4    4    0.371  -0.281  -0.001
    1res  C5    5    0.397  -0.119  -0.233
    1res  C6    6    0.416   0.124  -0.196
    1res  C7    7    0.150   0.194  -0.166
    1res  C8    8   -0.024   0.132   0.013
    1res  C9    9   -0.135   0.214   0.252
    1res  C10   10   -0.437   0.082   0.240
    1res  C11   11   -0.728   0.212   0.192
    1res  C12   12   -0.206  -0.031  -0.007
    1res  C13   13   -0.386   0.054  -0.121
    1res  C14   14   -0.413   0.180  -0.354
    1res  C15   15   -0.022  -0.213  -0.001
    1res  C16   16    0.062  -0.430   0.114
    1res  C17   17    0.439   0.048   0.033
  10.00000  10.00000  10.00000
