1TPCN05004
13
    1res  C1    1   -0.512  -0.036   0.163
    1res  C2    2   -0.509   0.225   0.299
    1res  C3    3   -0.283   0.153  -0.134
    1res  C4    4   -0.129  -0.225  -0.039
    1res  C5    5   -0.011  -0.068   0.201
    1res  C6    6    0.142  -0.211  -0.103
    1res  C7    7    0.359  -0.099   0.125
    1res  C8    8    0.277   0.188   0.152
    1res  C9    9    0.540   0.178   0.123
    1res  C10   10    0.592   0.036  -0.063
    1res  C11   11    0.199   0.061  -0.176
    1res  C12   12   -0.224  -0.084  -0.253
    1res  C13   13   -0.547   0.104  -0.079
  10.00000  10.00000  10.00000
