[ moleculetype ]
; name        nrexcl
res           1

[ atoms ]
;    nr  type  resnr resid  atom  cgnr     charge       mass
      1 TC3       1 res   C1        1      0.000     36.000
      2 SC3       1 res   C2        2      0.000     54.000
      3 SN1       1 res   C3        3      0.000     54.000
      4 SC4       1 res   C4        4      0.000     54.000
      5 TC5       1 res   C5        5      0.000     36.000
      6 TC5       1 res   C6        6      0.000     36.000
      7 TN6a      1 res   C7        7      0.000     36.000
      8 TC5       1 res   C8        8      0.000     36.000
      9 SN6a      1 res   C9        9      0.000     54.000
     10 N4a       1 res   C10      10      0.000     72.000

[ bonds ]
;  ai    aj   funct      b0(nm)          k(kJ/mol/nm^2)
    1     2     1      0.37485          57200.3
    2     3     1      0.33136         187824.0
    2     8     1      0.25682         128521.2
    3     4     1      0.31342         111534.5
    4     5     1      0.27161         232960.3
    4     6     1      0.30976         265255.0
    4     7     1      0.35238         135427.6
    4     8     1      0.24506         195911.0
    5     6     1      0.28962         166979.8
    7     8     1      0.14575         257162.6
    7     9     1      0.20255         221002.2
    9    10     1      0.37563          72214.8

[ angles ]
;  ai    aj    ak  funct     th0(deg)        k(kJ/mol/rad^2)
    1     2     3     1     83.70223           964.56
    1     2     8     1     88.97301           514.93
    2     3     4     1     77.72415          2849.47
    2     8     4     1    107.50422          1909.67
    2     8     7     1    111.05883          1355.75
    3     2     8     1     62.08573          4122.82
    3     4     5     1    111.86927          1086.86
    3     4     6     1    162.44615           584.01
    3     4     7     1     84.72456          4077.11
    3     4     8     1     66.10084          4916.96
    4     5     6     1     66.91234          7109.74
    4     6     5     1     53.76054         13174.79
    4     7     8     1     33.77279          4915.40
    4     7     9     1     74.79344          5549.49
    4     8     7     1    126.92290          2154.17
    5     4     6     1     59.32712          6963.36
    5     4     7     1    156.63587           286.77
    5     4     8     1    159.66470           364.84
    6     4     7     1    108.37011          1609.87
    6     4     8     1    127.56500          1722.85
    7     4     8     1     19.30434         13500.22
    7     9    10     1     78.47504          1273.12
    8     7     9     1    107.09367          3017.63
