[ moleculetype ]
; name        nrexcl
res           1

[ atoms ]
;    nr  type  resnr resid  atom  cgnr     charge       mass
      1 TC3       1 res   C1        1      0.000     36.000
      2 TC3       1 res   C2        2      0.000     36.000
      3 TN4a      1 res   C3        3      0.000     36.000
      4 SP4       1 res   C4        4      0.000     54.000
      5 TN4a      1 res   C5        5      0.000     36.000
      6 TP1       1 res   C6        6      0.000     36.000
      7 SP4       1 res   C7        7      0.000     54.000
      8 TC5       1 res   C8        8      0.000     36.000
      9 N4a       1 res   C9        9      0.000     72.000
     10 N4a       1 res   C10      10      0.000     72.000
     11 SC4       1 res   C11      11      0.000     54.000
     12 SC3       1 res   C12      12      0.000     54.000
     13 SN4a      1 res   C13      13      0.000     54.000
     14 TC3       1 res   C14      14      0.000     36.000
     15 TC5       1 res   C15      15      0.000     36.000
     16 N4a       1 res   C16      16      0.000     72.000
     17 TN4a      1 res   C17      17      0.000     36.000
     18 SP4       1 res   C18      18      0.000     54.000
     19 TN4a      1 res   C19      19      0.000     36.000
     20 TP1       1 res   C20      20      0.000     36.000
     21 SP4       1 res   C21      21      0.000     54.000
     22 TC3       1 res   C22      22      0.000     36.000
     23 P1        1 res   C23      23      0.000     72.000

[ constraints ]
;  ai    aj   funct      b0(nm)
    4     5     1      0.29293
   19    21     1      0.27361
   17    18     1      0.33728
    5     7     1      0.26897
   13    14     1      0.24860
   15    17     1      0.26312
   18    19     1      0.31360
    2    10     1      0.31007
   14    15     1      0.27037
   19    20     1      0.21188
    5     6     1      0.20852
    4     7     1      0.27388
   15    16     1      0.32368
    1     2     1      0.24658
   10    11     1      0.42311
    2     3     1      0.26612
   11    12     1      0.27393
   18    21     1      0.26688
    3     8     1      0.25173
   14    17     1      0.27352
   12    23     1      0.32725
   12    13     1      0.36826
    2     8     1      0.26777
   14    22     1      0.30880
    8     9     1      0.32248

[ bonds ]
;  ai    aj   funct      b0(nm)          k(kJ/mol/nm^2)
    3     4     1      0.27888           2221.2

[ angles ]
;  ai    aj    ak  funct     th0(deg)        k(kJ/mol/rad^2)
    1     2     3     1    102.32482           949.27
    1     2     8     1    142.59517           190.92
    1     2    10     1    122.39075            51.46
    2     3     4     1    147.80649           126.48
    2     3     8     1     62.22387          2525.70
    2     8     3     1     61.52086          4226.32
    2     8     9     1     97.96567           732.94
    2    10    11     1    143.47838           194.01
    3     2     8     1     56.25512          1991.58
    3     2    10     1    115.14388           210.98
    3     4     5     1    100.55226            29.64
    3     4     7     1    124.66417           195.75
    3     8     9     1    156.60360           482.43
    4     3     8     1    123.23563            31.96
    4     5     6     1    100.83359           512.94
    4     5     7     1     58.13905          3401.15
    4     7     5     1     65.32810          1609.14
    5     4     7     1     56.53281          3069.77
    6     5     7     1    105.01279           822.60
    8     2    10     1     94.21341            56.25
   10    11    12     1     90.48376          1138.81
   11    12    13     1     90.04734           856.91
   11    12    23     1     92.70896           693.56
   12    13    14     1    115.48953           386.48
   13    12    23     1    121.98717           225.92
   13    14    15     1     94.88466           340.43
   13    14    17     1    109.96871           303.66
   13    14    22     1    124.36615           174.43
   14    15    16     1     97.10014           620.70
   14    15    17     1     61.67102          6040.79
   14    17    15     1     60.47145          5918.97
   14    17    18     1    115.38688           475.53
   15    14    17     1     57.85753          7362.83
   15    14    22     1    122.15947          1140.14
   15    17    18     1     97.31343           248.34
   16    15    17     1    153.82004           288.21
   17    14    22     1     69.38003          1156.93
   17    18    19     1     63.27780          1466.44
   17    18    21     1    118.35589          1383.04
   18    19    20     1     97.42533           303.24
   18    19    21     1     53.53672          2920.76
   18    21    19     1     70.93169          2751.30
   19    18    21     1     55.53160          5345.51
   20    19    21     1    106.69625           797.19

[ dihedrals ]
;  ai    aj    ak    al  funct   phi0(deg)        k(kJ/mol)   mult
    1     2     3     4     1    141.43590       29.897      1
    1     2     3     8     1     30.94683       17.038      1
    1     2     8     3     1   -124.31126       19.463      1
    1     2     8     9     1     52.42450       19.656      1
    1     2    10    11     1    -80.50478       22.924      1
    2     3     4     5     1    172.04512       18.769      1
    2     3     4     7     1   -129.64357       11.707      1
    2     3     8     9     1    169.13838       29.788      1
    2     8     3     4     1     29.78382       16.329      1
    2    10    11    12     1     -1.56218       24.578      1
    3     2     8     9     1     -3.32338       18.360      1
    3     2    10    11     1     38.20100       21.438      1
    3     4     5     6     1   -153.39826       21.312      1
    3     4     5     7     1    -52.68329       18.807      1
    3     4     7     5     1    115.94707       18.999      1
    3     8     2    10     1     65.02144       12.026      1
    4     3     2     8     1    -70.26757       28.937      1
    4     3     2    10     1      6.47821       29.616      1
    4     3     8     9     1     19.57427       30.693      1
    4     7     5     6     1    -86.18243        9.218      1
    5     4     3     8     1   -103.05547       21.315      1
    6     5     4     7     1     78.98852        7.026      1
    7     4     3     8     1    -56.17126       19.047      1
    8     2    10    11     1     91.45029       22.169      1
    8     3     2    10     1    -94.54189       20.747      1
    9     8     2    10     1   -126.08069       16.379      1
   10    11    12    13     1    -21.91208       12.210      1
   10    11    12    23     1   -147.36338        9.988      1
   11    12    13    14     1    131.96890       23.241      1
   12    13    14    15     1     86.24307       12.200      1
   12    13    14    17     1     29.89130       13.640      1
   12    13    14    22     1    -48.32306       15.087      1
   13    14    15    16     1    -98.59071       13.635      1
   13    14    15    17     1     69.97665        9.350      1
   13    14    17    15     1    -97.92049       10.701      1
   13    14    17    18     1    -13.99537       13.721      1
   14    13    12    23     1   -134.59171       23.928      1
   14    15    17    18     1     64.04451        9.273      1
   14    17    15    16     1   -153.33420       19.070      1
   14    17    18    19     1     -4.56910       14.321      1
   14    17    18    21     1     -4.06044       15.075      1
   15    14    17    18     1    -96.97292       11.497      1
   15    17    14    22     1     22.94041       14.325      1
   15    17    18    19     1     57.28463       14.275      1
   15    17    18    21     1     56.15297       15.097      1
   16    15    14    17     1     13.55647       13.553      1
   16    15    14    22     1     37.06175       17.610      1
   16    15    17    18     1     93.33773       19.719      1
   17    15    14    22     1   -155.08734       15.699      1
   17    18    19    20     1   -106.89336       11.535      1
   17    18    19    21     1     -2.67439       14.302      1
   17    18    21    19     1    175.38606       12.927      1
   18    17    14    22     1    109.67687       15.021      1
   18    21    19    20     1    -93.01293       11.483      1
   20    19    18    21     1     74.97326        8.576      1
