[ moleculetype ]
; name        nrexcl
res           1

[ atoms ]
;    nr  type  resnr resid  atom  cgnr     charge       mass
      1 TC5       1 res   C1        1      0.000     36.000
      2 SN3r      1 res   C2        2      0.000     54.000
      3 SC2       1 res   C3        3      0.000     54.000
      4 TC3       1 res   C4        4      0.000     36.000
      5 SN4a      1 res   C5        5      0.000     54.000
      6 SN6       1 res   C6        6      0.000     54.000
      7 TC4       1 res   C7        7      0.000     36.000
      8 TN4a      1 res   C8        8      0.000     36.000
      9 TN6       1 res   C9        9      0.000     36.000

[ constraints ]
;  ai    aj   funct      b0(nm)
    2     3     1      0.28447
    4     5     1      0.28409
    3     4     1      0.39766
    7     8     1      0.30162
    2     8     1      0.28993
    6     7     1      0.29251
    8     9     1      0.23887

[ bonds ]
;  ai    aj   funct      b0(nm)          k(kJ/mol/nm^2)
    1     2     1      0.29913          17160.3
    6     9     1      0.28270           8189.8
    5     6     1      0.26226          15594.5

[ angles ]
;  ai    aj    ak  funct     th0(deg)        k(kJ/mol/rad^2)
    1     2     3     1     95.07683           214.89
    1     2     8     1     96.09893           286.69
    2     3     4     1     78.86793           349.24
    2     8     7     1    168.22714           195.92
    2     8     9     1     75.31774           206.45
    3     2     8     1     64.13540           415.80
    3     4     5     1     62.74252          1977.60
    4     5     6     1    155.07112           148.76
    5     6     7     1    103.01016           708.07
    5     6     9     1     91.01476            88.06
    6     7     8     1     60.60193          2010.92
    6     9     8     1     69.64345           705.19
    7     6     9     1     90.74614           199.45
    7     8     9     1     97.56782           453.19

[ dihedrals ]
;  ai    aj    ak    al  funct   phi0(deg)        k(kJ/mol)   mult
    1     2     3     4     1    -12.81519       12.944      1
    1     2     8     7     1     69.83850       19.845      1
    1     2     8     9     1     78.56064       16.906      1
    2     3     4     5     1    -98.25353       15.065      1
    2     8     7     6     1    140.51752       19.036      1
    2     8     9     6     1     48.31954       18.377      1
    3     2     8     7     1    -21.20993       17.482      1
    3     2     8     9     1    -17.16999       15.602      1
    3     4     5     6     1     48.78287       22.855      1
    4     3     2     8     1     81.14147        8.523      1
    4     5     6     7     1    -10.34696       25.381      1
    4     5     6     9     1   -105.34058       23.681      1
    5     6     7     8     1    127.82447       12.142      1
    5     6     9     8     1   -124.19878       12.144      1
    6     7     8     9     1    135.99164       13.551      1
    6     9     8     7     1   -138.99897       11.395      1
    7     6     9     8     1    136.77735       12.771      1
    8     7     6     9     1   -143.04848        9.952      1
