[ moleculetype ]
; name        nrexcl
res           1

[ atoms ]
;    nr  type  resnr resid  atom  cgnr     charge       mass
      1 TC3       1 res   C1        1      0.000     36.000
      2 TC3       1 res   C2        2      0.000     36.000
      3 TN6d      1 res   C3        3      0.000     36.000
      4 TC3       1 res   C4        4      0.000     36.000
      5 TC5       1 res   C5        5      0.000     36.000
      6 TC5       1 res   C6        6      0.000     36.000
      7 TC5       1 res   C7        7      0.000     36.000
      8 TC5       1 res   C8        8      0.000     36.000
      9 TN6d      1 res   C9        9      0.000     36.000
     10 TN2a      1 res   C10      10      0.000     36.000
     11 SC3       1 res   C11      11      0.000     54.000
     12 TN4a      1 res   C12      12      0.000     36.000
     13 N4a       1 res   C13      13      0.000     72.000

[ constraints ]
;  ai    aj   funct      b0(nm)
    1     2     1      0.26201
    5    11     1      0.27033
    3     5     1      0.22882
    2     3     1      0.26735
   11    12     1      0.35271
    4     5     1      0.22215
    6     9     1      0.21847
    5    10     1      0.18229
    3    11     1      0.25432
    6     8     1      0.24860
    3     4     1      0.29948
    7     8     1      0.28973
    5     6     1      0.19056
    4    10     1      0.21392
    6     7     1      0.24819
    2    11     1      0.29721
    5     9     1      0.22235
   11    13     1      0.39139

[ bonds ]
;  ai    aj   funct      b0(nm)          k(kJ/mol/nm^2)

[ angles ]
;  ai    aj    ak  funct     th0(deg)        k(kJ/mol/rad^2)
    1     2     3     1    150.42110           839.37
    1     2    11     1     99.10802          1121.96
    2     3     4     1     64.04725          1183.34
    2     3     5     1     94.98204          1690.44
    2     3    11     1     69.40466          3437.19
    2    11     3     1     57.36126          4149.69
    2    11     5     1     80.33642          2707.19
    2    11    12     1     82.50565           612.67
    2    11    13     1    141.32069           563.32
    3     2    11     1     53.23402          4740.68
    3     4     5     1     49.35049          4727.84
    3     4    10     1     48.63626          2766.65
    3     5     4     1     83.21832          2529.11
    3     5     6     1    151.34909          1013.77
    3     5     9     1     88.36773           989.83
    3     5    10     1     65.35329          1661.12
    3     5    11     1     60.58786          4075.89
    3    11     5     1     51.59612          6940.85
    3    11    12     1    110.13370          1354.32
    3    11    13     1    121.53015           342.45
    4     3     5     1     47.43122          8317.38
    4     3    11     1     90.42621          2337.73
    4     5     6     1    116.86109          1024.56
    4     5     9     1    137.34674           180.19
    4     5    10     1     62.95515          3519.80
    4     5    11     1    106.00238          1366.24
    4    10     5     1     67.67157          3221.16
    5     3    11     1     67.81594          3198.10
    5     4    10     1     49.37325          5422.57
    5     6     7     1    127.05006          1278.12
    5     6     8     1    160.13052          1121.94
    5     6     9     1     65.43728          3390.35
    5     9     6     1     51.22586          4488.35
    5    11    12     1     68.75180          2182.20
    5    11    13     1     75.32191           567.17
    6     5     9     1     63.33687          3655.25
    6     5    10     1    104.36237           810.06
    6     5    11     1    124.89830           825.60
    6     7     8     1     54.38633          8262.62
    6     8     7     1     54.25837          6267.28
    7     6     8     1     71.35530          4314.78
    7     6     9     1    163.39357           597.35
    8     6     9     1     95.39879           896.28
    9     5    10     1     75.66065           213.17
    9     5    11     1    105.64671           212.53
   10     5    11     1    125.73178          1426.43
   12    11    13     1     61.39758          1164.54

[ dihedrals ]
;  ai    aj    ak    al  funct   phi0(deg)        k(kJ/mol)   mult
    1     2     3     4     1    -95.56311       24.613      1
    1     2     3     5     1   -130.03204       23.321      1
    1     2     3    11     1    162.88946       24.699      1
    1     2    11     3     1     -7.24577       14.344      1
    1     2    11     5     1    -58.17212       15.010      1
    1     2    11    12     1   -128.14022       15.020      1
    1     2    11    13     1   -109.92334       17.785      1
    2     3     4     5     1     54.97259        6.986      1
    2     3     4    10     1    -12.96319        7.009      1
    2     3     5     4     1   -132.80546        6.991      1
    2     3     5     6     1      4.85530       11.532      1
    2     3     5     9     1     10.85167       12.074      1
    2     3     5    10     1    -69.95828        7.725      1
    2     3     5    11     1    114.98638        5.469      1
    2     3    11     5     1    -74.98374        5.531      1
    2     3    11    12     1   -112.11463        7.794      1
    2     3    11    13     1    -45.06601       10.063      1
    2    11     3     4     1    117.04680        5.567      1
    2    11     3     5     1     74.98374        5.531      1
    2    11     5     3     1   -124.02272        4.775      1
    2    11     5     4     1    164.89327        6.949      1
    2    11     5     6     1     21.84495        7.769      1
    2    11     5     9     1    -43.12383       11.351      1
    2    11     5    10     1   -128.07066        7.765      1
    3     2    11     5     1    129.98344        3.245      1
    3     2    11    12     1     59.08403        5.523      1
    3     2    11    13     1     79.94233       15.066      1
    3     4     5     6     1     21.94476        7.750      1
    3     4     5     9     1    102.02041       12.094      1
    3     4     5    10     1    114.96067        5.533      1
    3     4     5    11     1   -123.03819        3.962      1
    3     4    10     5     1   -113.89079        4.732      1
    3     5     4    10     1   -114.96067        5.533      1
    3     5     6     7     1      7.72560       16.358      1
    3     5     6     8     1    173.39088       20.935      1
    3     5     6     9     1   -176.55384       16.914      1
    3     5     9     6     1      0.37409        9.255      1
    3     5    10     4     1     84.98057        5.510      1
    3     5    11    12     1    -38.22480        7.755      1
    3     5    11    13     1     26.93942       10.055      1
    3    11     5     4     1    107.97478        4.789      1
    3    11     5     6     1    -34.30834        7.750      1
    3    11     5     9     1    -99.10310        9.921      1
    3    11     5    10     1    175.00518        7.055      1
    4     3     2    11     1    -78.97358        5.502      1
    4     3     5     6     1    -42.14558       12.216      1
    4     3     5     9     1    -38.29839       11.337      1
    4     3     5    10     1   -117.90248        4.739      1
    4     3     5    11     1     67.02361        5.556      1
    4     3    11     5     1   -137.00572        3.929      1
    4     3    11    12     1   -176.12443        7.813      1
    4     3    11    13     1   -107.85211        9.321      1
    4     5     3    11     1    -67.02361        5.556      1
    4     5     6     7     1    138.66043       12.934      1
    4     5     6     8     1    -56.97441       19.607      1
    4     5     6     9     1    -43.86522       12.757      1
    4     5     9     6     1     78.94436       10.019      1
    4     5    11    12     1   -110.95828        7.050      1
    4     5    11    13     1    -45.06638       10.052      1
    4    10     5     6     1    -66.02512        6.267      1
    4    10     5     9     1     -9.99011        9.225      1
    4    10     5    11     1     89.92022        7.766      1
    5     3     2    11     1   -117.86174        4.744      1
    5     3     4    10     1    112.07660        4.768      1
    5     3    11    12     1    140.88267        7.027      1
    5     3    11    13     1   -150.03384        9.291      1
    5     4     3    11     1    121.03655        5.531      1
    5     6     7     8     1     -6.73346       12.864      1
    5     6     8     7     1     14.22094       22.807      1
    5     9     6     7     1    -12.22708       23.549      1
    5     9     6     8     1     -1.90128        9.261      1
    6     5     3    11     1     69.79154       12.202      1
    6     5     4    10     1     87.90912        7.798      1
    6     5    11    12     1    107.09437       10.004      1
    6     5    11    13     1    173.93103       12.190      1
    6     9     5    10     1     66.74783        9.991      1
    6     9     5    11     1    -58.58745        8.504      1
    7     6     5     9     1      3.27485       16.324      1
    7     6     5    10     1     73.19893       12.198      1
    7     6     5    11     1    -81.45500       14.254      1
    7     8     6     9     1      1.69896       14.956      1
    8     6     5     9     1    171.58742       21.533      1
    8     6     5    10     1   -122.26801       20.429      1
    8     6     5    11     1     80.86334       20.291      1
    8     7     6     9     1   -170.28156       25.927      1
    9     5     3    11     1     75.28869       12.821      1
    9     5     4    10     1    168.03424       10.700      1
    9     5    11    12     1     42.84816       11.419      1
    9     5    11    13     1    105.21639       11.474      1
    9     6     5    10     1   -110.25084       12.773      1
    9     6     5    11     1     92.30219       14.124      1
   10     4     3    11     1     53.99651        6.311      1
   10     4     5    11     1    -57.97465        6.287      1
   10     5     3    11     1     -4.94914        5.585      1
   10     5    11    12     1    -43.95855        7.814      1
   10     5    11    13     1     21.97086       10.761      1
