1TPCN05214
12
    1res  C1    1   -0.416   0.159  -0.364
    1res  C2    2   -0.532   0.065  -0.133
    1res  C3    3   -0.463  -0.023   0.065
    1res  C4    4   -0.293  -0.199   0.168
    1res  C5    5   -0.124  -0.173  -0.062
    1res  C6    6   -0.084   0.178  -0.021
    1res  C7    7    0.051  -0.011   0.203
    1res  C8    8    0.253  -0.004  -0.075
    1res  C9    9    0.358   0.244  -0.083
    1res  C10   10    0.567   0.044  -0.130
    1res  C11   11    0.559   0.000   0.131
    1res  C12   12    0.222  -0.208   0.094
  10.00000  10.00000  10.00000
