[ moleculetype ]
; name        nrexcl
res           1

[ atoms ]
;    nr  type resnr resid  atom  cgnr     charge       mass
      1 TC4       1 res   C1        1      0.000     36.000
      2 TN4a      1 res   C2        2      0.000     36.000
      3 TN6       1 res   C3        3      0.000     36.000
      4 TN6       1 res   C4        4      0.000     36.000
      5 SC3       1 res   C5        5      0.000     54.000
      6 SC4       1 res   C6        6      0.000     54.000
      7 TC3       1 res   C7        7      0.000     36.000
      8 SC4       1 res   C8        8      0.000     54.000
      9 TC3       1 res   C9        9      0.000     36.000
     10 SC4       1 res   C10      10      0.000     54.000
     11 SC5       1 res   C11      11      0.000     54.000
     12 SC4       1 res   C12      12      0.000     54.000
     13 TC3       1 res   C13      13      0.000     36.000
     14 SP2       1 res   C14      14      0.000     54.000
     15 TC3       1 res   C15      15      0.000     36.000
     16 SC4       1 res   C16      16      0.000     54.000
     17 TN4a      1 res   C17      17      0.000     36.000
     18 TN6       1 res   C18      18      0.000     36.000
     19 TN6       1 res   C19      19      0.000     36.000
     20 TN6       1 res   C20      20      0.000     36.000
     21 SN6       1 res   C21      21      0.000     54.000
     22 TN6       1 res   C22      22      0.000     36.000
     23 TN4a      1 res   C23      23      0.000     36.000
     24 TP1       1 res   C24      24      0.000     36.000
     25 TN6       1 res   C25      25      0.000     36.000
     26 TN6       1 res   C26      26      0.000     36.000
     27 TN6       1 res   C27      27      0.000     36.000

[ bonds ]
;  ai    aj   funct      b0(nm)        k
    1     2     1      0.32264    20000
    1    21     1      0.28544    20000
    2     3     1      0.22069    20000
    2    20     1      0.24823    20000
    3     4     1      0.21329    20000
    3    19     1      0.21221    20000
    4     5     1      0.28480    20000
    4    17     1      0.28141    20000
    5     6     1      0.26632    20000
    5    16     1      0.34864    20000
    6     7     1      0.30345    20000
    6     8     1      0.26953    20000
    6    16     1      0.33287    20000
    7     8     1      0.26567    20000
    8     9     1      0.28223    20000
    8    10     1      0.31389    20000
    9    10     1      0.34973    20000
   10    11     1      0.28911    20000
   10    15     1      0.31460    20000
   11    12     1      0.28089    20000
   11    13     1      0.27210    20000
   11    14     1      0.39498    20000
   11    15     1      0.32033    20000
   12    13     1      0.29545    20000
   17    18     1      0.22937    20000
   18    19     1      0.27127    20000
   20    21     1      0.31625    20000
   21    22     1      0.25871    20000
   22    23     1      0.22967    20000
   22    27     1      0.24287    20000
   23    24     1      0.21112    20000
   23    25     1      0.24673    20000
   25    26     1      0.26866    20000
   26    27     1      0.22870    20000
