[ moleculetype ]
; name        nrexcl
res           1

[ atoms ]
;    nr  type  resnr resid  atom  cgnr     charge       mass
      1 TC4       1 res   C1        1      0.000     36.000
      2 SN6       1 res   C2        2      0.000     54.000
      3 SN5a      1 res   C3        3      0.000     54.000
      4 SC5       1 res   C4        4      0.000     54.000
      5 N4a       1 res   C5        5      0.000     72.000
      6 TC5       1 res   C6        6      0.000     36.000
      7 TC5       1 res   C7        7      0.000     36.000
      8 TC5       1 res   C8        8      0.000     36.000
      9 TN6       1 res   C9        9      0.000     36.000
     10 SN4a      1 res   C10      10      0.000     54.000
     11 TN3r      1 res   C11      11      0.000     36.000
     12 SN4a      1 res   C12      12      0.000     54.000
     13 TP1       1 res   C13      13      0.000     36.000
     14 SP4       1 res   C14      14      0.000     54.000
     15 TN6       1 res   C15      15      0.000     36.000
     16 SP4       1 res   C16      16      0.000     54.000
     17 TN6       1 res   C17      17      0.000     36.000

[ constraints ]
;  ai    aj   funct      b0(nm)
    6     8     1      0.29760
    1     3     1      0.35770
    9    10     1      0.24866
    1     9     1      0.26508
    2     4     1      0.27204
   14    15     1      0.27928
    6     7     1      0.25592
    1     2     1      0.35573
   10    11     1      0.29993
   10    17     1      0.23947
    2     3     1      0.30230
   11    12     1      0.21753
   12    14     1      0.29492
    7     8     1      0.28776
   16    17     1      0.27708
    4     9     1      0.22570
   10    16     1      0.24757
    3     4     1      0.31784
   12    13     1      0.28379

[ bonds ]
;  ai    aj   funct      b0(nm)          k(kJ/mol/nm^2)
    4     5     1      0.33681          14588.1
   12    15     1      0.26985          18096.9
    5     6     1      0.32731           8588.6

[ angles ]
;  ai    aj    ak  funct     th0(deg)        k(kJ/mol/rad^2)
    1     2     3     1     65.27012          4321.89
    1     2     4     1     77.02487          2738.77
    1     3     2     1     64.59681          3289.51
    1     3     4     1     71.57246          3740.18
    1     9     4     1    107.48259          1301.64
    1     9    10     1     87.86520           176.64
    2     1     3     1     50.13305         10111.65
    2     1     9     1     74.11570          3675.35
    2     3     4     1     51.96061          8557.09
    2     4     3     1     61.07365          7462.21
    2     4     5     1    115.51179           871.52
    2     4     9     1     99.52856          2119.33
    3     1     9     1     58.70393          4253.20
    3     2     4     1     66.96576          5628.68
    3     4     5     1     57.43374          1162.57
    3     4     9     1     68.65833          2874.90
    4     5     6     1    112.57479            35.42
    4     9    10     1     97.03766           581.93
    5     4     9     1     74.64683           444.40
    5     6     7     1    155.60006           137.08
    5     6     8     1     95.10105           139.08
    6     7     8     1     66.07305          6824.02
    6     8     7     1     51.81865          9041.98
    7     6     8     1     62.10830          7504.22
    9    10    11     1    127.71465           794.27
    9    10    16     1    145.61496           839.62
    9    10    17     1     81.08690           926.41
   10    11    12     1    126.89750           139.01
   10    16    17     1     53.94185          3362.41
   10    17    16     1     56.72917          1716.59
   11    10    16     1     84.58652          1308.04
   11    10    17     1    125.67810           524.72
   11    12    13     1    115.36052           379.79
   11    12    14     1    132.68665           354.76
   11    12    15     1     98.52507           288.76
   12    14    15     1     56.01363           947.58
   12    15    14     1     64.92034          2632.03
   13    12    14     1     91.27279          1841.56
   13    12    15     1    145.24368           454.97
   14    12    15     1     59.06547          1850.90
   16    10    17     1     69.32906          1794.33

[ dihedrals ]
;  ai    aj    ak    al  funct   phi0(deg)        k(kJ/mol)   mult
    1     2     3     4     1     94.93307        4.019      1
    1     2     4     3     1   -111.04355        3.960      1
    1     2     4     5     1    -94.85980       10.024      1
    1     2     4     9     1   -170.73168        5.503      1
    1     3     2     4     1    -94.93307        4.019      1
    1     3     4     2     1    108.95125        4.026      1
    1     3     4     5     1    -50.12921       10.756      1
    1     3     4     9     1   -135.47733        4.762      1
    1     9     4     2     1    167.94008        7.747      1
    1     9     4     3     1    113.96624        4.805      1
    1     9     4     5     1     51.10410        7.103      1
    1     9    10    11     1    116.11731       13.572      1
    1     9    10    16     1    -43.47544       15.010      1
    1     9    10    17     1    -12.08190       12.190      1
    2     1     3     4     1   -124.01395        3.220      1
    2     1     9     4     1   -170.93333        5.522      1
    2     1     9    10     1    -72.06923        7.749      1
    2     3     1     9     1     84.36733        4.725      1
    2     3     4     5     1     19.98630        9.361      1
    2     3     4     9     1    -64.07241        6.269      1
    2     4     5     6     1   -114.28588       23.681      1
    2     4     9    10     1     75.61235       12.203      1
    3     1     2     4     1    109.98217        3.255      1
    3     1     9     4     1   -118.90871        5.500      1
    3     1     9    10     1    -20.03146        7.766      1
    3     2     1     9     1   -117.98962        4.717      1
    3     2     4     5     1   -161.97210        9.317      1
    3     2     4     9     1    121.92431        6.212      1
    3     4     5     6     1    -94.18996       24.567      1
    3     4     9    10     1     19.97589       12.202      1
    4     2     1     9     1    172.01731        4.746      1
    4     3     1     9     1    140.96137        4.004      1
    4     5     6     7     1     33.30679        9.083      1
    4     5     6     8     1     43.86240       11.612      1
    4     9    10    11     1   -135.45974       11.478      1
    4     9    10    16     1     65.96205       15.032      1
    4     9    10    17     1     94.95562       12.860      1
    5     4     9    10     1    -38.88147       14.349      1
    5     6     7     8     1   -179.83661       27.676      1
    5     6     8     7     1     -0.12437       15.102      1
    6     5     4     9     1    -20.43028       25.242      1
    9    10    11    12     1    124.82281       12.892      1
    9    10    16    17     1   -147.71243       13.607      1
    9    10    17    16     1     18.14616        7.842      1
   10    11    12    13     1   -132.93879       11.463      1
   10    11    12    14     1    106.87905       17.066      1
   10    11    12    15     1     53.23642       11.466      1
   11    10    16    17     1     48.02459        7.852      1
   11    10    17    16     1   -114.88849        8.527      1
   11    12    14    15     1    111.39032       14.339      1
   11    12    15    14     1    -42.96272       11.495      1
   12    11    10    16     1    -65.87564       12.163      1
   12    11    10    17     1   -124.14021       13.663      1
   13    12    14    15     1    -17.11327       10.078      1
   13    12    15    14     1    150.05414       15.016      1
