[ moleculetype ]
; name        nrexcl
res           1

[ atoms ]
;    nr  type resnr resid  atom  cgnr     charge       mass
      1 SC4       1 res   C1        1      0.000     54.000
      2 TC3       1 res   C2        2      0.000     36.000
      3 SC4       1 res   C3        3      0.000     54.000
      4 TC4       1 res   C4        4      0.000     36.000
      5 SP2       1 res   C5        5      0.000     54.000
      6 SC3       1 res   C6        6      0.000     54.000
      7 TC3       1 res   C7        7      0.000     36.000
      8 TC5       1 res   C8        8      0.000     36.000
      9 TN2a      1 res   C9        9      0.000     36.000
     10 SN6       1 res   C10      10      0.000     54.000

[ bonds ]
;  ai    aj   funct      b0(nm)        k
    1     2     1      0.30921    20000
    1     3     1      0.31832    20000
    1     7     1      0.26861    20000
    2     3     1      0.36477    20000
    3     4     1      0.40239    20000
    3     6     1      0.30010    20000
    4     5     1      0.30464    20000
    4     6     1      0.36260    20000
    7     8     1      0.23991    20000
    8     9     1      0.17508    20000
    8    10     1      0.26788    20000
    9    10     1      0.21973    20000
