[ moleculetype ]
; name        nrexcl
res           1

[ atoms ]
;    nr  type  resnr resid  atom  cgnr     charge       mass
      1 TC3       1 res   C1        1      0.000     36.000
      2 SC3       1 res   C2        2      0.000     54.000
      3 SN1       1 res   C3        3      0.000     54.000
      4 SC4       1 res   C4        4      0.000     54.000
      5 TN6a      1 res   C5        5      0.000     36.000
      6 TC5       1 res   C6        6      0.000     36.000
      7 TN2a      1 res   C7        7      0.000     36.000
      8 TC5       1 res   C8        8      0.000     36.000
      9 TN2a      1 res   C9        9      0.000     36.000
     10 TN2a      1 res   C10      10      0.000     36.000
     11 TN3r      1 res   C11      11      0.000     36.000

[ constraints ]
;  ai    aj   funct      b0(nm)
    1     2     1      0.32942
    5    11     1      0.28904
    2     3     1      0.24490
    4     5     1      0.16575
    4     8     1      0.23759
    6     8     1      0.22355
    3     4     1      0.32490
    8    10     1      0.25386
    2    11     1      0.27445
    4     6     1      0.31436

[ bonds ]
;  ai    aj   funct      b0(nm)          k(kJ/mol/nm^2)
    6     7     1      0.28598           1670.2
    8     9     1      0.27486           7033.5

[ angles ]
;  ai    aj    ak  funct     th0(deg)        k(kJ/mol/rad^2)
    1     2     3     1    116.56180           901.87
    1     2    11     1    127.30719           296.08
    2     3     4     1     91.23158          2409.76
    2    11     5     1     83.71916          1101.04
    3     2    11     1     87.94799          2199.37
    3     4     5     1     97.53320          2398.79
    3     4     6     1    150.64748          1884.68
    3     4     8     1    106.34289          1819.50
    4     5    11     1    117.13668          1345.65
    4     6     7     1     91.64370            21.81
    4     6     8     1     48.92618         10239.45
    4     8     6     1     85.89725          6979.66
    4     8     9     1    152.48126           398.75
    4     8    10     1    107.40192           202.70
    5     4     6     1    110.97966          3469.61
    5     4     8     1    155.57024          2595.51
    6     4     8     1     45.17655         12545.06
    6     8     9     1     87.46802            37.78
    6     8    10     1    153.13958           411.27
    7     6     8     1    138.59230            22.77
    9     8    10     1     86.52523           144.49

[ dihedrals ]
;  ai    aj    ak    al  funct   phi0(deg)        k(kJ/mol)   mult
    1     2     3     4     1     12.47642       13.529      1
    1     2    11     5     1    -13.17523       11.481      1
    2     3     4     5     1    150.91392        7.052      1
    2     3     4     6     1    -36.86854       17.160      1
    2     3     4     8     1    -29.87399       12.144      1
    2    11     5     4     1   -120.89859       11.392      1
    3     2    11     5     1    111.96051        6.263      1
    3     4     5    11     1    159.98887        9.282      1
    3     4     6     7     1      8.28361       22.904      1
    3     4     6     8     1   -167.10299       21.101      1
    3     4     8     6     1      7.83680       12.250      1
    3     4     8     9     1    -20.18261       15.118      1
    3     4     8    10     1   -177.86583       24.589      1
    4     3     2    11     1   -118.94160        5.509      1
    4     6     8     9     1      0.41557       24.511      1
    4     6     8    10     1     20.31673       25.289      1
    4     8     6     7     1   -179.05717       28.491      1
    5     4     6     7     1   -176.61572       20.308      1
    5     4     6     8     1      2.82092       11.494      1
    5     4     8     6     1   -175.22598       21.018      1
    5     4     8     9     1    157.23171       16.010      1
    5     4     8    10     1      0.37169       29.670      1
    6     4     5    11     1    -17.08409       10.078      1
    6     4     8     9     1    150.83737       15.344      1
    6     4     8    10     1     -0.86649       23.180      1
    7     6     4     8     1      0.08211       20.258      1
    7     6     8     9     1     -8.12671       30.750      1
    7     6     8    10     1      4.61111       22.099      1
    8     4     5    11     1    -20.68478       19.683      1
