1TPCN04303
37
    1res  C1    1   -1.601   0.049   0.133
    1res  C2    2   -1.457  -0.094  -0.021
    1res  C3    3   -1.272  -0.203   0.004
    1res  C4    4   -1.070  -0.261  -0.041
    1res  C5    5   -0.921  -0.061   0.042
    1res  C6    6   -0.663   0.141   0.113
    1res  C7    7   -0.481  -0.032   0.131
    1res  C8    8   -0.304  -0.092  -0.117
    1res  C9    9   -0.219  -0.064   0.154
    1res  C10   10   -0.250   0.291   0.023
    1res  C11   11   -0.005   0.100   0.162
    1res  C12   12    0.090   0.315  -0.101
    1res  C13   13    0.247   0.520  -0.200
    1res  C14   14    0.230   0.248  -0.338
    1res  C15   15    0.350   0.104  -0.076
    1res  C16   16    0.588   0.168   0.078
    1res  C17   17    0.783   0.080   0.014
    1res  C18   18    1.002  -0.071  -0.082
    1res  C19   19    0.977  -0.380  -0.038
    1res  C20   20    1.215  -0.205   0.035
    1res  C21   21    1.322  -0.385  -0.046
    1res  C22   22    1.431  -0.293  -0.319
    1res  C23   23    1.605  -0.189  -0.144
    1res  C24   24    1.650  -0.311   0.033
    1res  C25   25    1.441  -0.325   0.153
    1res  C26   26    1.253   0.013   0.125
    1res  C27   27    1.169   0.144  -0.032
    1res  C28   28    0.712   0.250   0.314
    1res  C29   29    0.596   0.037   0.378
    1res  C30   30    0.401   0.126   0.303
    1res  C31   31    0.081  -0.047  -0.094
    1res  C32   32   -0.671  -0.109  -0.139
    1res  C33   33   -1.084   0.087   0.120
    1res  C34   34   -1.189  -0.115   0.198
    1res  C35   35   -1.494  -0.237  -0.208
    1res  C36   36   -1.700  -0.111  -0.233
    1res  C37   37   -1.775  -0.023  -0.028
  10.00000  10.00000  10.00000
