1TPCN04008
20
    1res  C1    1    0.403  -0.150  -0.368
    1res  C2    2    0.337  -0.324  -0.117
    1res  C3    3    0.163  -0.091  -0.094
    1res  C4    4    0.324  -0.074   0.083
    1res  C5    5    0.555   0.067   0.138
    1res  C6    6    0.652   0.149   0.408
    1res  C7    7    0.753   0.248   0.110
    1res  C8    8    0.587   0.391   0.048
    1res  C9    9    0.433   0.236  -0.054
    1res  C10   10    0.015  -0.272   0.072
    1res  C11   11   -0.073  -0.125  -0.109
    1res  C12   12   -0.210  -0.265  -0.277
    1res  C13   13   -0.135   0.118  -0.179
    1res  C14   14   -0.343  -0.154  -0.021
    1res  C15   15   -0.440   0.207  -0.052
    1res  C16   16   -0.654   0.029  -0.049
    1res  C17   17   -0.683   0.219   0.147
    1res  C18   18   -0.537   0.085   0.312
    1res  C19   19   -0.208   0.033   0.179
    1res  C20   20    0.124  -0.213  -0.346
  10.00000  10.00000  10.00000
