1TPCN00507
10
    1res  C1    1    0.574  -0.089  -0.033
    1res  C2    2    0.265  -0.024   0.044
    1res  C3    3    0.121   0.067  -0.135
    1res  C4    4   -0.145   0.023   0.046
    1res  C5    5   -0.078   0.052   0.194
    1res  C6    6   -0.449  -0.058   0.075
    1res  C7    7   -0.538  -0.071   0.311
    1res  C8    8   -0.281  -0.023  -0.141
    1res  C9    9   -0.432  -0.074  -0.336
    1res  C10   10    0.183   0.197   0.201
  10.00000  10.00000  10.00000
