[ moleculetype ]
; name        nrexcl
res           1

[ atoms ]
;    nr  type resnr resid  atom  cgnr     charge       mass
      1 TN6d      1 res   C1        1      0.000     36.000
      2 TC5       1 res   C2        2      0.000     36.000
      3 TC5       1 res   C3        3      0.000     36.000
      4 SX3       1 res   C4        4      0.000     54.000
      5 TN1a      1 res   C5        5      0.000     36.000

[ bonds ]
;  ai    aj   funct      b0(nm)        k
    1     2     1      0.21450    20000
    1     5     1      0.21467    20000
    2     3     1      0.24948    20000
    2     4     1      0.26593    20000
    2     5     1      0.17420    20000
    3     4     1      0.30304    20000
