[ moleculetype ]
; name        nrexcl
res           1

[ atoms ]
;    nr  type  resnr resid  atom  cgnr     charge       mass
      1 X1        1 res   C1        1      0.000     72.000
      2 TC5       1 res   C2        2      0.000     36.000
      3 SP2       1 res   C3        3      0.000     54.000
      4 TC5       1 res   C4        4      0.000     36.000

[ constraints ]
;  ai    aj   funct      b0(nm)
    1     2     1      0.26655
    2     3     1      0.26218
    1     4     1      0.31312
    2     4     1      0.29827

[ bonds ]
;  ai    aj   funct      b0(nm)          k(kJ/mol/nm^2)

[ angles ]
;  ai    aj    ak  funct     th0(deg)        k(kJ/mol/rad^2)
    1     2     3     1    158.18209           661.26
    1     2     4     1     67.06376          5225.96
    1     4     2     1     51.62250          5981.85
    2     1     4     1     61.31374          6490.67
    3     2     4     1     92.25954           948.54

[ dihedrals ]
;  ai    aj    ak    al  funct   phi0(deg)        k(kJ/mol)   mult
    1     4     2     3     1      1.02547       12.899      1
    3     2     1     4     1   -178.33384       25.348      1
