[ moleculetype ]
; name        nrexcl
res           1

[ atoms ]
;    nr  type  resnr resid  atom  cgnr     charge       mass
      1 X1        1 res   C1        1      0.000     72.000
      2 TC5       1 res   C2        2      0.000     36.000
      3 SP2       1 res   C3        3      0.000     54.000
      4 TC5       1 res   C4        4      0.000     36.000

[ constraints ]
;  ai    aj   funct      b0(nm)
    1     2     1      0.26653
    2     3     1      0.25980
    1     4     1      0.31343
    2     4     1      0.29823

[ bonds ]
;  ai    aj   funct      b0(nm)          k(kJ/mol/nm^2)

[ angles ]
;  ai    aj    ak  funct     th0(deg)        k(kJ/mol/rad^2)
    1     2     3     1    159.85933          1276.24
    1     2     4     1     67.14750          5554.74
    1     4     2     1     51.58868          7434.20
    2     1     4     1     61.26380          5159.18
    3     2     4     1     93.32236          2041.34

[ dihedrals ]
;  ai    aj    ak    al  funct   phi0(deg)        k(kJ/mol)   mult
    1     4     2     3     1     -1.87286       10.713      1
    3     2     1     4     1    178.59037       19.654      1
