1TPCN01922
17
    1res  C1    1   -0.418  -0.022   0.244
    1res  C2    2   -0.336  -0.144   0.029
    1res  C3    3   -0.094  -0.138  -0.119
    1res  C4    4   -0.281  -0.003  -0.323
    1res  C5    5   -0.382   0.393  -0.121
    1res  C6    6    0.082  -0.016  -0.303
    1res  C7    7   -0.122   0.067  -0.377
    1res  C8    8   -0.055   0.335  -0.381
    1res  C9    9    0.114   0.272  -0.118
    1res  C10   10    0.417  -0.078  -0.012
    1res  C11   11    0.708  -0.249   0.121
    1res  C12   12    0.801  -0.374   0.327
    1res  C13   13    0.514  -0.326   0.340
    1res  C14   14    0.026  -0.164   0.087
    1res  C15   15    0.112  -0.230   0.313
    1res  C16   16    0.216  -0.148   0.535
    1res  C17   17    0.153   0.067   0.349
  10.00000  10.00000  10.00000
