1TPCN05416
34
    1res  C1    1    1.051   0.162   0.349
    1res  C2    2    0.727   0.043   0.523
    1res  C3    3    0.767  -0.195   0.381
    1res  C4    4    0.625  -0.035   0.235
    1res  C5    5    0.673  -0.205   0.074
    1res  C6    6    0.875  -0.075  -0.136
    1res  C7    7    1.046   0.169  -0.249
    1res  C8    8    0.834   0.005  -0.385
    1res  C9    9    0.837  -0.242  -0.376
    1res  C10   10    0.666  -0.235  -0.206
    1res  C11   11    0.374  -0.209   0.233
    1res  C12   12    0.346   0.028   0.364
    1res  C13   13    0.440   0.104  -0.017
    1res  C14   14    0.211   0.220   0.189
    1res  C15   15    0.148   0.082  -0.175
    1res  C16   16   -0.093   0.206  -0.043
    1res  C17   17   -0.189   0.047  -0.221
    1res  C18   18   -0.415   0.129  -0.372
    1res  C19   19   -0.561   0.018  -0.624
    1res  C20   20   -0.712   0.153  -0.403
    1res  C21   21   -0.610   0.275  -0.210
    1res  C22   22   -0.504   0.092  -0.127
    1res  C23   23   -0.522  -0.201   0.035
    1res  C24   24   -0.796  -0.260   0.006
    1res  C25   25   -0.642  -0.016   0.175
    1res  C26   26   -0.926  -0.047   0.080
    1res  C27   27   -1.150  -0.058  -0.059
    1res  C28   28   -1.270   0.135  -0.114
    1res  C29   29   -1.277  -0.103   0.121
    1res  C30   30   -1.175   0.057   0.268
    1res  C31   31   -0.973   0.107   0.210
    1res  C32   32   -0.134  -0.196  -0.111
    1res  C33   33    0.017  -0.175  -0.324
    1res  C34   34    0.030  -0.039   0.164
  10.00000  10.00000  10.00000
