[ moleculetype ]
; name        nrexcl
res           1

[ atoms ]
;    nr  type  resnr resid  atom  cgnr     charge       mass
      1 TC4       1 res   C1        1      0.000     36.000
      2 TC3       1 res   C2        2      0.000     36.000
      3 SN4a      1 res   C3        3      0.000     54.000
      4 TC5       1 res   C4        4      0.000     36.000
      5 SP4       1 res   C5        5      0.000     54.000
      6 SN6       1 res   C6        6      0.000     54.000
      7 SC3       1 res   C7        7      0.000     54.000
      8 TN6       1 res   C8        8      0.000     36.000
      9 SN4a      1 res   C9        9      0.000     54.000
     10 TP1       1 res   C10      10      0.000     36.000
     11 SP4       1 res   C11      11      0.000     54.000
     12 TN6       1 res   C12      12      0.000     36.000
     13 N4a       1 res   C13      13      0.000     72.000
     14 TC5       1 res   C14      14      0.000     36.000
     15 TC5       1 res   C15      15      0.000     36.000
     16 TC5       1 res   C16      16      0.000     36.000
     17 SN4a      1 res   C17      17      0.000     54.000

[ constraints ]
;  ai    aj   funct      b0(nm)
    4     5     1      0.28247
   13    14     1      0.31365
    9    10     1      0.28709
    2     7     1      0.27623
   14    15     1      0.25587
    5     6     1      0.33207
   15    16     1      0.28796
    1     2     1      0.30848
    1     8     1      0.26655
    1    17     1      0.35154
    7     8     1      0.22515
    7    17     1      0.33857
    4     6     1      0.33422
    9    11     1      0.26542
    3     4     1      0.24053
   14    16     1      0.29795
    8     9     1      0.28997

[ bonds ]
;  ai    aj   funct      b0(nm)          k(kJ/mol/nm^2)
    7    13     1      0.27236          19203.5
    9    12     1      0.25492          16874.4
    2     3     1      0.20727          17630.1
   11    12     1      0.29295          16784.6

[ angles ]
;  ai    aj    ak  funct     th0(deg)        k(kJ/mol/rad^2)
    1     2     3     1    155.68786           113.72
    1     2     7     1     84.12113          1852.64
    1     8     7     1    105.60856          1281.82
    1     8     9     1     70.79195           379.90
    1    17     7     1     69.27085          3908.78
    2     1     8     1     76.08311          2787.34
    2     1    17     1     55.95752          1568.16
    2     3     4     1    137.04470           177.25
    2     7     8     1     89.85384          2605.49
    2     7    13     1    127.37526           181.43
    2     7    17     1     59.96011          2066.23
    3     2     7     1    107.84930           433.51
    3     4     5     1    156.73074          1211.39
    3     4     6     1     92.95386          1267.08
    4     5     6     1     65.31216          8369.22
    4     6     5     1     50.16609          9386.47
    5     4     6     1     64.52173          7786.69
    7     8     9     1    152.43382           183.35
    7    13    14     1    112.98395            43.34
    8     1    17     1     55.82118          1700.13
    8     7    13     1     85.23315           579.88
    8     7    17     1     60.10923          1139.45
    8     9    10     1    131.51345           423.93
    8     9    11     1    115.91448           246.42
    8     9    12     1     71.51550           499.83
    9    11    12     1     54.06690           736.39
    9    12    11     1     57.41293          1652.04
   10     9    11     1     69.28504           469.67
   10     9    12     1    137.11216           178.48
   11     9    12     1     68.51942           628.22
   13     7    17     1     72.81308           350.14
   13    14    15     1    162.30989           482.99
   13    14    16     1    101.54273           675.55
   14    15    16     1     66.13911          3644.45
   14    16    15     1     51.73537         19444.45
   15    14    16     1     62.12552          3219.88

[ dihedrals ]
;  ai    aj    ak    al  funct   phi0(deg)        k(kJ/mol)   mult
    1     2     3     4     1    -97.20945       25.721      1
    1     2     7     8     1   -164.07930        6.323      1
    1     2     7    13     1    -82.89359       10.012      1
    1     2     7    17     1   -110.03138        4.788      1
    1     8     7     2     1    161.07555        7.086      1
    1     8     7    13     1     32.25937       13.656      1
    1     8     7    17     1    107.95891        6.282      1
    1     8     9    10     1    123.06629       23.284      1
    1     8     9    11     1     38.74481       18.037      1
    1     8     9    12     1    -12.81989       25.125      1
    1    17     7     2     1    118.08056        4.763      1
    1    17     7     8     1   -131.97142        6.284      1
    1    17     7    13     1    -38.10063       10.798      1
    2     1     8     7     1   -162.13203        7.760      1
    2     1     8     9     1     43.30680       11.549      1
    2     1    17     7     1   -125.00672        4.015      1
    2     3     4     5     1     30.67305       30.605      1
    2     3     4     6     1     29.53018       21.664      1
    2     7     8     9     1   -125.19378       22.157      1
    2     7    13    14     1   -112.37063       29.920      1
    3     2     1     8     1     39.04893       21.868      1
    3     2     1    17     1    -19.20697       21.704      1
    3     2     7     8     1     -6.38017       16.383      1
    3     2     7    13     1     76.52346       15.658      1
    3     2     7    17     1     48.58737       18.390      1
    3     4     5     6     1    175.61673       21.466      1
    3     4     6     5     1     -2.02969       10.789      1
    4     3     2     7     1    143.58275       23.368      1
    7     2     1     8     1    166.10538        6.252      1
    7     2     1    17     1    109.02908        4.020      1
    7     8     1    17     1   -106.01602        7.790      1
    7     8     9    10     1     37.39492       21.073      1
    7     8     9    11     1    -46.62708       17.801      1
    7     8     9    12     1    -99.09426       22.307      1
    7    13    14    15     1    -92.58263       30.261      1
    7    13    14    16     1   -100.92708       26.827      1
    7    17     1     8     1    139.02480        3.966      1
    8     7    13    14     1    -29.54187       25.699      1
    8     9    11    12     1    127.08479       12.933      1
    8     9    12    11     1    -48.96174       15.712      1
    9     8     1    17     1    102.14800       12.192      1
    9     8     7    13     1    108.25796       23.208      1
    9     8     7    17     1   -178.54179       22.811      1
   10     9    11    12     1      1.11370       12.940      1
   10     9    12    11     1    178.00254       15.050      1
   13    14    15    16     1    171.84467       25.243      1
   13    14    16    15     1     -3.13586       11.483      1
   14    13     7    17     1    -88.83056       24.551      1
