1TPCN03663
35
    1res  C1    1    1.295   0.240   0.204
    1res  C2    2    1.066   0.123   0.207
    1res  C3    3    0.910   0.145   0.036
    1res  C4    4    0.808  -0.102  -0.110
    1res  C5    5    0.860   0.134  -0.322
    1res  C6    6    0.554   0.169  -0.117
    1res  C7    7    0.589  -0.084  -0.334
    1res  C8    8    0.473  -0.260  -0.011
    1res  C9    9    0.351  -0.192  -0.251
    1res  C10   10    0.113  -0.245  -0.105
    1res  C11   11    0.082  -0.025   0.108
    1res  C12   12   -0.149  -0.082   0.031
    1res  C13   13   -0.291  -0.087   0.280
    1res  C14   14   -0.248  -0.303   0.439
    1res  C15   15   -0.544  -0.101   0.410
    1res  C16   16   -0.542   0.057   0.250
    1res  C17   17   -0.842   0.194   0.353
    1res  C18   18   -0.839   0.394   0.453
    1res  C19   19   -0.727   0.474   0.243
    1res  C20   20   -0.698   0.253   0.142
    1res  C21   21   -0.832   0.336  -0.042
    1res  C22   22   -1.031   0.553  -0.155
    1res  C23   23   -1.086   0.229  -0.183
    1res  C24   24   -0.921   0.167  -0.317
    1res  C25   25   -0.720   0.146  -0.192
    1res  C26   26   -0.482  -0.065   0.092
    1res  C27   27   -0.510  -0.252  -0.050
    1res  C28   28   -0.369  -0.494  -0.181
    1res  C29   29   -0.579  -0.498   0.086
    1res  C30   30   -0.789  -0.441  -0.034
    1res  C31   31   -0.774  -0.223  -0.043
    1res  C32   32   -0.163  -0.166  -0.210
    1res  C33   33   -0.183   0.117  -0.216
    1res  C34   34    0.209   0.046  -0.298
    1res  C35   35    1.074  -0.160  -0.028
  10.00000  10.00000  10.00000
