[ moleculetype ]
; name        nrexcl
res           1

[ atoms ]
;    nr  type resnr resid  atom  cgnr     charge       mass
      1 TC4       1 res   C1        1      0.000     36.000
      2 TC3       1 res   C2        2      0.000     36.000
      3 TC5       1 res   C3        3      0.000     36.000
      4 SP2       1 res   C4        4      0.000     54.000
      5 TC3       1 res   C5        5      0.000     36.000
      6 SC4       1 res   C6        6      0.000     54.000
      7 TC3       1 res   C7        7      0.000     36.000
      8 SC4       1 res   C8        8      0.000     54.000
      9 SC4       1 res   C9        9      0.000     54.000
     10 SN6       1 res   C10      10      0.000     54.000
     11 TN6       1 res   C11      11      0.000     36.000
     12 SN4a      1 res   C12      12      0.000     54.000
     13 TN6       1 res   C13      13      0.000     36.000
     14 TN6       1 res   C14      14      0.000     36.000
     15 TN6       1 res   C15      15      0.000     36.000
     16 TC4       1 res   C16      16      0.000     36.000
     17 TP1       1 res   C17      17      0.000     36.000
     18 TC3       1 res   C18      18      0.000     36.000
     19 TC4       1 res   C19      19      0.000     36.000

[ bonds ]
;  ai    aj   funct      b0(nm)        k
    1     2     1      0.27938    20000
    1    19     1      0.32143    20000
    2     3     1      0.26284    20000
    3     4     1      0.31999    20000
    3     5     1      0.26537    20000
    3     6     1      0.33595    20000
    3    19     1      0.28575    20000
    5     6     1      0.31007    20000
    6     7     1      0.33792    20000
    6     8     1      0.26935    20000
    7     8     1      0.37856    20000
    8     9     1      0.37110    20000
    8    18     1      0.28690    20000
    9    10     1      0.29858    20000
    9    16     1      0.41107    20000
    9    18     1      0.37431    20000
   10    11     1      0.26844    20000
   11    12     1      0.28722    20000
   11    16     1      0.27755    20000
   12    13     1      0.25351    20000
   12    15     1      0.28297    20000
   13    14     1      0.21389    20000
   14    15     1      0.21716    20000
   16    17     1      0.28656    20000
