[ moleculetype ]
; name        nrexcl
res           1

[ atoms ]
;    nr  type  resnr resid  atom  cgnr     charge       mass
      1 SX2       1 res   C1        1      0.000     54.000
      2 TC5       1 res   C2        2      0.000     36.000
      3 TN6a      1 res   C3        3      0.000     36.000

[ bonds ]
;  ai    aj   funct      b0(nm)          k(kJ/mol/nm^2)
    1     2     1      0.29409         218569.2
    1     3     1      0.27604         219568.0
    2     3     1      0.28749         171789.0

[ angles ]
;  ai    aj    ak  funct     th0(deg)        k(kJ/mol/rad^2)
    1     2     3     1     56.65596         12405.69
    1     3     2     1     62.87982          8968.63
    2     1     3     1     60.46422         10136.07

[ dihedrals ]
;  ai    aj    ak    al  funct   phi0(deg)        k(kJ/mol)   mult
