1TPCN02120
7
    1res  C1    1    0.346   0.083   0.069
    1res  C2    2    0.134   0.054  -0.108
    1res  C3    3   -0.099  -0.158  -0.086
    1res  C4    4   -0.175   0.217  -0.062
    1res  C5    5   -0.343   0.031   0.078
    1res  C6    6   -0.217  -0.186   0.145
    1res  C7    7    0.125  -0.176   0.064
  10.00000  10.00000  10.00000
