1TPCN04262
41
    1res  C1    1    1.730  -0.138   0.265
    1res  C2    2    1.567  -0.233   0.004
    1res  C3    3    1.364  -0.183   0.007
    1res  C4    4    1.108  -0.079  -0.014
    1res  C5    5    1.279   0.033   0.198
    1res  C6    6    0.849  -0.059   0.013
    1res  C7    7    0.634  -0.049  -0.066
    1res  C8    8    0.404   0.120   0.006
    1res  C9    9    0.163   0.023  -0.106
    1res  C10   10    0.231   0.298  -0.200
    1res  C11   11    0.088   0.119  -0.381
    1res  C12   12   -0.033   0.069   0.203
    1res  C13   13   -0.201  -0.072  -0.015
    1res  C14   14   -0.270   0.230   0.009
    1res  C15   15   -0.382   0.035   0.337
    1res  C16   16   -0.571  -0.083   0.120
    1res  C17   17   -0.706   0.136   0.073
    1res  C18   18   -0.675   0.338  -0.147
    1res  C19   19   -0.623   0.262  -0.420
    1res  C20   20   -0.699   0.055  -0.326
    1res  C21   21   -0.844   0.120  -0.178
    1res  C22   22   -0.976  -0.052  -0.203
    1res  C23   23   -0.882  -0.316  -0.087
    1res  C24   24   -1.126  -0.318  -0.032
    1res  C25   25   -1.094  -0.018  -0.017
    1res  C26   26   -1.341  -0.176   0.018
    1res  C27   27   -1.552  -0.242   0.192
    1res  C28   28   -1.724  -0.245   0.038
    1res  C29   29   -1.650   0.002  -0.041
    1res  C30   30   -1.427   0.030   0.057
    1res  C31   31   -0.718   0.213   0.311
    1res  C32   32   -0.337   0.328   0.248
    1res  C33   33    0.116   0.289   0.157
    1res  C34   34    0.438  -0.229  -0.031
    1res  C35   35    0.613  -0.373   0.007
    1res  C36   36    0.736  -0.271  -0.206
    1res  C37   37    1.102  -0.264  -0.156
    1res  C38   38    1.312  -0.226  -0.195
    1res  C39   39    1.648  -0.159  -0.200
    1res  C40   40    1.810  -0.016  -0.092
    1res  C41   41    1.753   0.071   0.119
  10.00000  10.00000  10.00000
