[ moleculetype ]
; name        nrexcl
res           1

[ atoms ]
;    nr  type resnr resid  atom  cgnr     charge       mass
      1 SN2a      1 res   C1        1      0.000     54.000
      2 TC5       1 res   C2        2      0.000     36.000
      3 TC5       1 res   C3        3      0.000     36.000
      4 N4a       1 res   C4        4      0.000     72.000
      5 SN6       1 res   C5        5      0.000     54.000
      6 TN6       1 res   C6        6      0.000     36.000
      7 SN6       1 res   C7        7      0.000     54.000
      8 TN4a      1 res   C8        8      0.000     36.000
      9 TP1       1 res   C9        9      0.000     36.000
     10 TN6       1 res   C10      10      0.000     36.000
     11 SN6       1 res   C11      11      0.000     54.000
     12 TN4a      1 res   C12      12      0.000     36.000
     13 TN6       1 res   C13      13      0.000     36.000
     14 SN6       1 res   C14      14      0.000     54.000
     15 TN6       1 res   C15      15      0.000     36.000
     16 TC4       1 res   C16      16      0.000     36.000
     17 TN4a      1 res   C17      17      0.000     36.000
     18 TN6       1 res   C18      18      0.000     36.000
     19 TN6       1 res   C19      19      0.000     36.000
     20 SC3       1 res   C20      20      0.000     54.000
     21 SC4       1 res   C21      21      0.000     54.000
     22 TC3       1 res   C22      22      0.000     36.000
     23 SC4       1 res   C23      23      0.000     54.000
     24 TC3       1 res   C24      24      0.000     36.000
     25 SC4       1 res   C25      25      0.000     54.000
     26 SC5       1 res   C26      26      0.000     54.000
     27 SC4       1 res   C27      27      0.000     54.000
     28 TC3       1 res   C28      28      0.000     36.000
     29 SN4a      1 res   C29      29      0.000     54.000
     30 SN4a      1 res   C30      30      0.000     54.000
     31 TN3r      1 res   C31      31      0.000     36.000
     32 SN4a      1 res   C32      32      0.000     54.000
     33 TP1       1 res   C33      33      0.000     36.000
     34 TN6       1 res   C34      34      0.000     36.000
     35 TN4a      1 res   C35      35      0.000     36.000
     36 TC4       1 res   C36      36      0.000     36.000
     37 TN6       1 res   C37      37      0.000     36.000
     38 TN6       1 res   C38      38      0.000     36.000
     39 TN6       1 res   C39      39      0.000     36.000
     40 TN6       1 res   C40      40      0.000     36.000
     41 TN6       1 res   C41      41      0.000     36.000
     42 TN6       1 res   C42      42      0.000     36.000
     43 TN6       1 res   C43      43      0.000     36.000
     44 TN6       1 res   C44      44      0.000     36.000
     45 TC3       1 res   C45      45      0.000     36.000
     46 SC4       1 res   C46      46      0.000     54.000
     47 TN4a      1 res   C47      47      0.000     36.000
     48 TN6       1 res   C48      48      0.000     36.000
     49 TN6       1 res   C49      49      0.000     36.000
     50 TN6       1 res   C50      50      0.000     36.000
     51 TN6       1 res   C51      51      0.000     36.000
     52 TN4a      1 res   C52      52      0.000     36.000
     53 TN3r      1 res   C53      53      0.000     36.000
     54 TN4a      1 res   C54      54      0.000     36.000
     55 TC4       1 res   C55      55      0.000     36.000
     56 TN6       1 res   C56      56      0.000     36.000
     57 TN6       1 res   C57      57      0.000     36.000
     58 TN6       1 res   C58      58      0.000     36.000
     59 TN6       1 res   C59      59      0.000     36.000
     60 TN6       1 res   C60      60      0.000     36.000

[ bonds ]
;  ai    aj   funct      b0(nm)        k
    1     2     1      0.40322    20000
    1    60     1      0.28676    20000
    2     3     1      0.30200    20000
    3     4     1      0.36128    20000
    3    60     1      0.24282    20000
    4     5     1      0.37992    20000
    5     6     1      0.29975    20000
    5    59     1      0.26568    20000
    6     7     1      0.26588    20000
    6    52     1      0.27484    20000
    7     8     1      0.27055    20000
    7    51     1      0.24840    20000
    8     9     1      0.22884    20000
    8    10     1      0.26507    20000
   10    11     1      0.30761    20000
   10    51     1      0.22293    20000
   11    12     1      0.28035    20000
   11    50     1      0.29638    20000
   12    13     1      0.25719    20000
   13    14     1      0.23091    20000
   13    50     1      0.21944    20000
   14    15     1      0.30993    20000
   14    17     1      0.25115    20000
   15    16     1      0.24657    20000
   16    17     1      0.31488    20000
   17    18     1      0.22597    20000
   18    19     1      0.21326    20000
   18    49     1      0.23535    20000
   19    20     1      0.28379    20000
   19    47     1      0.28105    20000
   20    21     1      0.28996    20000
   20    46     1      0.34841    20000
   21    22     1      0.37805    20000
   21    23     1      0.27022    20000
   21    46     1      0.33598    20000
   22    23     1      0.29396    20000
   23    24     1      0.37956    20000
   23    25     1      0.26748    20000
   24    25     1      0.33885    20000
   25    26     1      0.37657    20000
   25    45     1      0.31227    20000
   26    27     1      0.30146    20000
   26    28     1      0.30010    20000
   26    29     1      0.29258    20000
   26    45     1      0.37743    20000
   27    28     1      0.29227    20000
   29    30     1      0.28984    20000
   30    31     1      0.29549    20000
   30    42     1      0.28781    20000
   30    44     1      0.23328    20000
   31    32     1      0.33165    20000
   32    33     1      0.30280    20000
   32    34     1      0.22681    20000
   32    41     1      0.28551    20000
   34    35     1      0.21045    20000
   34    40     1      0.22252    20000
   35    36     1      0.30249    20000
   35    39     1      0.24095    20000
   36    37     1      0.24494    20000
   37    38     1      0.25533    20000
   38    39     1      0.23753    20000
   40    41     1      0.24790    20000
   42    43     1      0.21794    20000
   43    44     1      0.24047    20000
   47    48     1      0.24940    20000
   48    49     1      0.22963    20000
   52    53     1      0.21665    20000
   52    59     1      0.23534    20000
   53    54     1      0.23762    20000
   54    55     1      0.30594    20000
   54    58     1      0.23385    20000
   55    56     1      0.27053    20000
   56    57     1      0.24573    20000
   57    58     1      0.21947    20000
