1TPCN05741
60
    1res  C1    1   -2.290  -0.583   0.321
    1res  C2    2   -1.912  -0.601   0.460
    1res  C3    3   -1.920  -0.342   0.305
    1res  C4    4   -1.561  -0.365   0.334
    1res  C5    5   -1.246  -0.215   0.184
    1res  C6    6   -1.345   0.025   0.335
    1res  C7    7   -1.266   0.268   0.260
    1res  C8    8   -1.007   0.201   0.297
    1res  C9    9   -0.951   0.013   0.179
    1res  C10   10   -1.003   0.360   0.085
    1res  C11   11   -0.968   0.341  -0.220
    1res  C12   12   -0.752   0.346  -0.041
    1res  C13   13   -0.671   0.149  -0.186
    1res  C14   14   -0.474   0.030  -0.205
    1res  C15   15   -0.580  -0.191  -0.016
    1res  C16   16   -0.462  -0.137   0.193
    1res  C17   17   -0.299   0.021  -0.025
    1res  C18   18   -0.203  -0.116  -0.177
    1res  C19   19   -0.013  -0.146  -0.086
    1res  C20   20    0.162   0.071  -0.141
    1res  C21   21    0.223   0.306   0.017
    1res  C22   22    0.480   0.055   0.136
    1res  C23   23    0.467   0.349   0.124
    1res  C24   24    0.574   0.196  -0.206
    1res  C25   25    0.689   0.437   0.003
    1res  C26   26    0.939   0.197  -0.144
    1res  C27   27    1.080   0.432  -0.269
    1res  C28   28    1.117   0.378   0.016
    1res  C29   29    1.109   0.070   0.059
    1res  C30   30    1.294  -0.135  -0.029
    1res  C31   31    1.294  -0.378   0.139
    1res  C32   32    1.575  -0.207   0.095
    1res  C33   33    1.658   0.067   0.194
    1res  C34   34    1.800  -0.233   0.091
    1res  C35   35    1.981  -0.259  -0.014
    1res  C36   36    2.255  -0.387  -0.020
    1res  C37   37    2.334  -0.159  -0.061
    1res  C38   38    2.172   0.016   0.030
    1res  C39   39    1.975  -0.032  -0.093
    1res  C40   40    1.816  -0.282   0.307
    1res  C41   41    1.585  -0.369   0.329
    1res  C42   42    1.184  -0.383  -0.126
    1res  C43   43    1.183  -0.247  -0.296
    1res  C44   44    1.323  -0.058  -0.248
    1res  C45   45    0.826   0.250   0.212
    1res  C46   46    0.069   0.066   0.195
    1res  C47   47   -0.134  -0.395  -0.039
    1res  C48   48   -0.133  -0.465  -0.278
    1res  C49   49   -0.243  -0.275  -0.346
    1res  C50   50   -0.856   0.072  -0.273
    1res  C51   51   -1.192   0.468   0.133
    1res  C52   52   -1.472   0.012   0.092
    1res  C53   53   -1.391   0.119  -0.079
    1res  C54   54   -1.463   0.010  -0.277
    1res  C55   55   -1.394   0.287  -0.385
    1res  C56   56   -1.663   0.302  -0.401
    1res  C57   57   -1.776   0.085  -0.422
    1res  C58   58   -1.694  -0.009  -0.242
    1res  C59   59   -1.424  -0.194  -0.012
    1res  C60   60   -2.160  -0.331   0.271
  10.00000  10.00000  10.00000
