1TPCN05922
26
    1res  C1    1    0.475  -0.294  -0.417
    1res  C2    2    0.318   0.016  -0.272
    1res  C3    3    0.188  -0.196  -0.110
    1res  C4    4   -0.118  -0.201  -0.242
    1res  C5    5   -0.147   0.022  -0.077
    1res  C6    6   -0.330  -0.167   0.190
    1res  C7    7   -0.340   0.092   0.091
    1res  C8    8   -0.552  -0.115  -0.146
    1res  C9    9   -0.629   0.028   0.188
    1res  C10   10   -0.854   0.056   0.002
    1res  C11   11   -1.115   0.019  -0.071
    1res  C12   12   -1.000   0.297  -0.050
    1res  C13   13   -0.873   0.257   0.251
    1res  C14   14   -0.593   0.298   0.032
    1res  C15   15   -0.070  -0.342   0.048
    1res  C16   16    0.394  -0.132  -0.004
    1res  C17   17    0.483  -0.029   0.164
    1res  C18   18    0.781  -0.174   0.228
    1res  C19   19    1.046  -0.213   0.157
    1res  C20   20    0.946  -0.185  -0.052
    1res  C21   21    0.816  -0.009   0.005
    1res  C22   22    0.748   0.216   0.105
    1res  C23   23    0.742   0.437   0.237
    1res  C24   24    1.013   0.351   0.196
    1res  C25   25    0.928   0.355  -0.025
    1res  C26   26    0.498   0.085  -0.112
  10.00000  10.00000  10.00000
