1TPCN03177
15
    1res  C1    1   -0.369   0.257  -0.101
    1res  C2    2   -0.049   0.283   0.008
    1res  C3    3    0.043   0.036   0.106
    1res  C4    4    0.048   0.062  -0.169
    1res  C5    5   -0.211  -0.103  -0.164
    1res  C6    6   -0.277  -0.155   0.070
    1res  C7    7   -0.417   0.111   0.140
    1res  C8    8   -0.631   0.038   0.011
    1res  C9    9   -0.524  -0.217   0.058
    1res  C10   10    0.265   0.188  -0.071
    1res  C11   11    0.440  -0.003  -0.068
    1res  C12   12    0.720   0.086   0.076
    1res  C13   13    0.605  -0.190   0.074
    1res  C14   14    0.448  -0.323   0.014
    1res  C15   15    0.322  -0.222  -0.159
  10.00000  10.00000  10.00000
