1TPCN02626
21
    1res  C1    1   -0.372  -0.151  -0.246
    1res  C2    2   -0.338   0.118  -0.108
    1res  C3    3   -0.400   0.063   0.099
    1res  C4    4   -0.202  -0.005   0.124
    1res  C5    5    0.055   0.016  -0.041
    1res  C6    6    0.276  -0.034   0.126
    1res  C7    7    0.415   0.107  -0.066
    1res  C8    8    0.277   0.312  -0.029
    1res  C9    9    0.061   0.172   0.285
    1res  C10   10    0.586   0.198  -0.178
    1res  C11   11    0.564  -0.064  -0.070
    1res  C12   12    0.777  -0.092  -0.275
    1res  C13   13    0.903  -0.259  -0.354
    1res  C14   14    0.725  -0.302  -0.132
    1res  C15   15   -0.267  -0.124   0.354
    1res  C16   16   -0.183  -0.349   0.314
    1res  C17   17   -0.465  -0.237   0.221
    1res  C18   18   -0.530   0.013   0.273
    1res  C19   19   -0.553   0.247  -0.115
    1res  C20   20   -0.640   0.056  -0.204
    1res  C21   21   -0.522   0.044  -0.418
  10.00000  10.00000  10.00000
