[ moleculetype ]
; name        nrexcl
res           1

[ atoms ]
;    nr  type  resnr resid  atom  cgnr     charge       mass
      1 SC2       1 res   C1        1      0.000     54.000
      2 P1        1 res   C2        2      0.000     72.000
      3 P1        1 res   C3        3      0.000     72.000
      4 TC3       1 res   C4        4      0.000     36.000
      5 TC3       1 res   C5        5      0.000     36.000
      6 SN6       1 res   C6        6      0.000     54.000

[ constraints ]
;  ai    aj   funct      b0(nm)
    1     2     1      0.27363
    2     3     1      0.30786
    4     5     1      0.25526
    3     4     1      0.28500
    5     6     1      0.30008
    2     4     1      0.28660
    4     6     1      0.31031

[ bonds ]
;  ai    aj   funct      b0(nm)          k(kJ/mol/nm^2)

[ angles ]
;  ai    aj    ak  funct     th0(deg)        k(kJ/mol/rad^2)
    1     2     3     1    148.85890           334.83
    1     2     4     1    124.42330            99.72
    2     3     4     1     57.67014          2557.38
    2     4     3     1     65.17225          2206.07
    2     4     5     1    125.08189            95.09
    2     4     6     1     86.31691           564.43
    3     2     4     1     57.15767          2069.04
    3     4     5     1     91.10138           423.46
    3     4     6     1    117.45898            46.11
    4     5     6     1     67.44159           921.88
    4     6     5     1     49.37520          3203.81
    5     4     6     1     63.18330          1231.49

[ dihedrals ]
;  ai    aj    ak    al  funct   phi0(deg)        k(kJ/mol)   mult
    1     2     3     4     1     68.29304       23.233      1
    1     2     4     3     1    -32.24660       12.154      1
    1     2     4     5     1     38.32160       17.696      1
    1     2     4     6     1     90.81397       21.584      1
    2     3     4     5     1     54.93732       14.384      1
    2     3     4     6     1    111.87486       10.814      1
    2     4     5     6     1   -115.59049       17.680      1
    2     4     6     5     1     48.83014       17.667      1
    3     2     4     5     1   -107.02223       12.979      1
    3     2     4     6     1    -53.97474       18.438      1
    3     4     5     6     1    -54.31267       20.964      1
    3     4     6     5     1    108.94608       14.980      1
