1TPCN06051
23
    1res  C1    1    0.833   0.011  -0.242
    1res  C2    2    0.674   0.201  -0.038
    1res  C3    3    0.472   0.139  -0.091
    1res  C4    4    0.372  -0.150   0.011
    1res  C5    5    0.321  -0.130  -0.281
    1res  C6    6    0.419  -0.381  -0.179
    1res  C7    7    0.247   0.084   0.189
    1res  C8    8   -0.007  -0.175   0.026
    1res  C9    9    0.021  -0.034   0.328
    1res  C10   10   -0.266   0.022   0.269
    1res  C11   11   -0.392  -0.165   0.056
    1res  C12   12   -0.490   0.031  -0.060
    1res  C13   13   -0.787   0.095  -0.097
    1res  C14   14   -0.857  -0.072   0.112
    1res  C15   15   -1.013  -0.069  -0.188
    1res  C16   16   -0.834   0.022  -0.347
    1res  C17   17   -0.642  -0.059  -0.279
    1res  C18   18   -0.461   0.224   0.087
    1res  C19   19   -0.125   0.268   0.243
    1res  C20   20    0.112   0.128  -0.102
    1res  C21   21    0.730   0.081   0.189
    1res  C22   22    0.929   0.204   0.118
    1res  C23   23    0.976  -0.021  -0.041
  10.00000  10.00000  10.00000
