[ moleculetype ]
; name        nrexcl
res           1

[ atoms ]
;    nr  type resnr resid  atom  cgnr     charge       mass
      1 SC4       1 res   C1        1      0.000     54.000
      2 TC3       1 res   C2        2      0.000     36.000
      3 SC5       1 res   C3        3      0.000     54.000
      4 SP2       1 res   C4        4      0.000     54.000
      5 SN6       1 res   C5        5      0.000     54.000
      6 SC4       1 res   C6        6      0.000     54.000
      7 TC3       1 res   C7        7      0.000     36.000
      8 SC4       1 res   C8        8      0.000     54.000
      9 SC4       1 res   C9        9      0.000     54.000
     10 SN6       1 res   C10      10      0.000     54.000
     11 SN6       1 res   C11      11      0.000     54.000
     12 SN4a      1 res   C12      12      0.000     54.000
     13 TP1       1 res   C13      13      0.000     36.000
     14 TN6       1 res   C14      14      0.000     36.000
     15 TN6       1 res   C15      15      0.000     36.000
     16 SN4a      1 res   C16      16      0.000     54.000
     17 TP1       1 res   C17      17      0.000     36.000
     18 TN6       1 res   C18      18      0.000     36.000
     19 TN6       1 res   C19      19      0.000     36.000
     20 TN6       1 res   C20      20      0.000     36.000
     21 TN6       1 res   C21      21      0.000     36.000
     22 TP1       1 res   C22      22      0.000     36.000
     23 TP1       1 res   C23      23      0.000     36.000
     24 TC3       1 res   C24      24      0.000     36.000

[ bonds ]
;  ai    aj   funct      b0(nm)        k
    1     2     1      0.29285    20000
    1     3     1      0.27941    20000
    2     3     1      0.28185    20000
    3     4     1      0.34713    20000
    3     5     1      0.37155    20000
    3     6     1      0.37596    20000
    5     6     1      0.28873    20000
    6     7     1      0.32454    20000
    6     8     1      0.27230    20000
    7     8     1      0.38217    20000
    8     9     1      0.26538    20000
    8    24     1      0.28338    20000
    9    10     1      0.27193    20000
    9    11     1      0.33839    20000
    9    24     1      0.30473    20000
   10    11     1      0.26313    20000
   11    12     1      0.33552    20000
   11    22     1      0.30689    20000
   11    23     1      0.25115    20000
   12    13     1      0.28534    20000
   12    14     1      0.30179    20000
   12    21     1      0.25781    20000
   14    15     1      0.23608    20000
   15    16     1      0.30088    20000
   15    21     1      0.23884    20000
   16    17     1      0.31065    20000
   16    18     1      0.31033    20000
   16    20     1      0.26084    20000
   18    19     1      0.22170    20000
   19    20     1      0.23739    20000
