1TPCN05633
24
    1res  C1    1   -0.580   0.338  -0.137
    1res  C2    2   -0.772   0.117  -0.142
    1res  C3    3   -0.496   0.073  -0.110
    1res  C4    4   -0.670  -0.138  -0.324
    1res  C5    5   -0.665  -0.223   0.039
    1res  C6    6   -0.415  -0.293  -0.088
    1res  C7    7   -0.169  -0.084  -0.114
    1res  C8    8   -0.268  -0.360   0.131
    1res  C9    9   -0.015  -0.309   0.192
    1res  C10   10    0.217  -0.260   0.058
    1res  C11   11    0.217  -0.067   0.237
    1res  C12   12    0.329   0.246   0.189
    1res  C13   13    0.212   0.506   0.200
    1res  C14   14    0.293   0.387  -0.075
    1res  C15   15    0.423   0.191  -0.094
    1res  C16   16    0.636   0.039  -0.242
    1res  C17   17    0.905  -0.099  -0.170
    1res  C18   18    0.911   0.157  -0.326
    1res  C19   19    0.748   0.278  -0.417
    1res  C20   20    0.519   0.223  -0.385
    1res  C21   21    0.490   0.066   0.099
    1res  C22   22    0.129  -0.240   0.475
    1res  C23   23    0.071   0.074   0.385
    1res  C24   24   -0.239  -0.129   0.293
  10.00000  10.00000  10.00000
