[ moleculetype ]
; name        nrexcl
res           1

[ atoms ]
;    nr  type  resnr resid  atom  cgnr     charge       mass
      1 TN6a      1 res   C1        1      0.000     36.000
      2 TC5       1 res   C2        2      0.000     36.000
      3 TN1a      1 res   C3        3      0.000     36.000
      4 TN6d      1 res   C4        4      0.000     36.000
      5 TN6a      1 res   C5        5      0.000     36.000
      6 TN6d      1 res   C6        6      0.000     36.000

[ constraints ]
;  ai    aj   funct      b0(nm)
    1     2     1      0.23943
    2     3     1      0.17691
    2     5     1      0.24821
    3     4     1      0.21004
    5     6     1      0.21153
    1     6     1      0.19546
    2     4     1      0.21335

[ bonds ]
;  ai    aj   funct      b0(nm)          k(kJ/mol/nm^2)

[ angles ]
;  ai    aj    ak  funct     th0(deg)        k(kJ/mol/rad^2)
    1     2     3     1    140.53593          1035.32
    1     2     4     1     76.50512          1066.24
    1     2     5     1     86.91300          2675.08
    1     6     5     1    110.97201          1510.08
    2     1     6     1     83.28920          2015.81
    2     3     4     1     66.27538          5166.18
    2     4     3     1     49.39250          7559.33
    2     5     6     1     78.04233          2964.47
    3     2     4     1     64.33213          4692.34
    3     2     5     1    131.40416          1330.85
    4     2     5     1    161.38817           582.61

[ dihedrals ]
;  ai    aj    ak    al  funct   phi0(deg)        k(kJ/mol)   mult
    1     2     3     4     1   -177.85788       13.630      1
    1     2     4     3     1      2.04352        9.313      1
    1     2     5     6     1    178.11856       10.771      1
    1     6     5     2     1   -179.97827       13.654      1
    2     1     6     5     1    178.11739       13.671      1
    3     2     1     6     1     -1.92534       19.153      1
    3     2     5     6     1      1.29759       17.101      1
    3     4     2     5     1      1.45248       28.955      1
    4     2     1     6     1      1.03619       15.764      1
    4     2     5     6     1    179.38712       27.058      1
    4     3     2     5     1     -0.98025       19.814      1
    5     2     1     6     1   -179.04138       11.499      1
