1TPCN01984
20
    1res  C1    1   -0.254   0.086  -0.300
    1res  C2    2    0.007   0.156  -0.028
    1res  C3    3   -0.185   0.329  -0.022
    1res  C4    4   -0.253   0.169   0.259
    1res  C5    5   -0.300   0.161   0.516
    1res  C6    6   -0.068   0.274   0.566
    1res  C7    7   -0.230   0.201   0.664
    1res  C8    8    0.056   0.345  -0.246
    1res  C9    9    0.268   0.251   0.179
    1res  C10   10    0.264   0.122  -0.046
    1res  C11   11    0.090  -0.024   0.134
    1res  C12   12    0.294  -0.192   0.021
    1res  C13   13    0.200  -0.368  -0.124
    1res  C14   14    0.232  -0.599  -0.232
    1res  C15   15    0.447  -0.473  -0.069
    1res  C16   16   -0.137  -0.148   0.163
    1res  C17   17   -0.297  -0.337   0.209
    1res  C18   18   -0.409  -0.551   0.115
    1res  C19   19   -0.227  -0.422  -0.072
    1res  C20   20    0.253  -0.080  -0.326
  10.00000  10.00000  10.00000
