1TPCN01637
6
    1res  C1    1   -0.308  -0.224   0.004
    1res  C2    2   -0.270   0.078  -0.047
    1res  C3    3   -0.313   0.301   0.082
    1res  C4    4   -0.105   0.244  -0.043
    1res  C5    5    0.091   0.127   0.087
    1res  C6    6    0.332  -0.143  -0.066
  10.00000  10.00000  10.00000
