1TPCN01753
13
    1res  C1    1   -0.003   0.049   0.180
    1res  C2    2    0.271   0.021   0.051
    1res  C3    3    0.341   0.098  -0.242
    1res  C4    4    0.541  -0.026  -0.066
    1res  C5    5    0.519  -0.175   0.133
    1res  C6    6    0.436   0.022   0.230
    1res  C7    7   -0.038  -0.150  -0.006
    1res  C8    8   -0.198  -0.274  -0.126
    1res  C9    9   -0.486  -0.310  -0.093
    1res  C10   10   -0.218  -0.024  -0.131
    1res  C11   11   -0.460   0.075  -0.011
    1res  C12   12   -0.213   0.200  -0.109
    1res  C13   13   -0.312   0.409  -0.050
  10.00000  10.00000  10.00000
