[ moleculetype ]
; name        nrexcl
res           1

[ atoms ]
;    nr  type  resnr resid  atom  cgnr     charge       mass
      1 TC3       1 res   C1        1      0.000     36.000
      2 TC3       1 res   C2        2      0.000     36.000
      3 TN6d      1 res   C3        3      0.000     36.000
      4 TC3       1 res   C4        4      0.000     36.000
      5 TC5       1 res   C5        5      0.000     36.000
      6 TC5       1 res   C6        6      0.000     36.000
      7 TC5       1 res   C7        7      0.000     36.000
      8 TC5       1 res   C8        8      0.000     36.000
      9 TN6d      1 res   C9        9      0.000     36.000
     10 TN2a      1 res   C10      10      0.000     36.000
     11 SC3       1 res   C11      11      0.000     54.000
     12 N4a       1 res   C12      12      0.000     72.000

[ constraints ]
;  ai    aj   funct      b0(nm)
    1     2     1      0.32889
    5    11     1      0.25322
    3     5     1      0.22831
    2     3     1      0.26655
   11    12     1      0.37795
    4     5     1      0.22172
    6     9     1      0.21789
    5    10     1      0.18227
    3    11     1      0.26528
    6     8     1      0.24882
    3     4     1      0.30104
    7     8     1      0.29009
    5     6     1      0.19143
    4    10     1      0.21400
    6     7     1      0.24849
    2    11     1      0.29298
    5     9     1      0.22212

[ bonds ]
;  ai    aj   funct      b0(nm)          k(kJ/mol/nm^2)

[ angles ]
;  ai    aj    ak  funct     th0(deg)        k(kJ/mol/rad^2)
    1     2     3     1    123.46607          2460.06
    1     2    11     1     67.97686          3834.71
    2     3     4     1     64.27519          1694.11
    2     3     5     1     95.04270          1925.33
    2     3    11     1     66.85687          5448.87
    2    11     3     1     56.78082          4840.65
    2    11     5     1     83.76743          3077.81
    2    11    12     1    148.78390           333.79
    3     2    11     1     56.36233          6177.50
    3     4     5     1     48.95134          6482.70
    3     4    10     1     48.66430          4647.76
    3     5     4     1     83.96378          3778.45
    3     5     6     1    150.83333          1937.03
    3     5     9     1     88.15721          1523.27
    3     5    10     1     65.87685          3097.48
    3     5    11     1     66.62633          4170.59
    3    11     5     1     52.17912          7748.41
    3    11    12     1    129.93789           715.59
    4     3     5     1     47.08488          9465.36
    4     3    11     1     82.17431          2786.80
    4     5     6     1    118.03969          1421.68
    4     5     9     1    139.89800           179.76
    4     5    10     1     63.08076          4306.96
    4     5    11     1    103.37116          2182.02
    4    10     5     1     67.50043          4377.02
    5     3    11     1     61.19457          4405.35
    5     4    10     1     49.41877          5525.84
    5     6     7     1    127.09219          1799.46
    5     6     8     1    160.32213          1759.14
    5     6     9     1     65.35091          2011.65
    5     9     6     1     51.57894          3259.62
    5    11    12     1     83.21511           685.08
    6     5     9     1     63.07023          3040.35
    6     5    10     1    105.57069          1368.37
    6     5    11     1    120.39835          1139.69
    6     7     8     1     54.36797          9540.49
    6     8     7     1     54.26115         10412.49
    7     6     8     1     71.37086          6368.75
    7     6     9     1    164.21477           767.05
    8     6     9     1     95.60079          1328.91
    9     5    10     1     77.90191           196.58
    9     5    11     1    109.17629           185.43
   10     5    11     1    131.57862          2245.19

[ dihedrals ]
;  ai    aj    ak    al  funct   phi0(deg)        k(kJ/mol)   mult
    1     2     3     4     1    -94.65128       17.115      1
    1     2     3     5     1   -129.12082       17.076      1
    1     2     3    11     1    174.69678       15.669      1
    1     2    11     3     1     -4.00118       13.607      1
    1     2    11     5     1    -54.83048       14.305      1
    1     2    11    12     1   -117.99391       17.852      1
    2     3     4     5     1     54.03176        4.766      1
    2     3     4    10     1    -13.92588        4.773      1
    2     3     5     4     1   -132.97348        5.475      1
    2     3     5     6     1     10.02194       10.747      1
    2     3     5     9     1     11.78248       12.130      1
    2     3     5    10     1    -69.98184        4.789      1
    2     3     5    11     1    119.99622        3.258      1
    2     3    11     5     1    -69.97409        6.253      1
    2     3    11    12     1    -37.07934       11.523      1
    2    11     3     4     1    114.97108        5.517      1
    2    11     3     5     1     69.97409        6.253      1
    2    11     5     3     1   -127.06587        4.019      1
    2    11     5     4     1    154.98069        5.523      1
    2    11     5     6     1     20.02348        6.256      1
    2    11     5     9     1    -47.99726        9.254      1
    2    11     5    10     1   -138.08775        7.783      1
    3     2    11     5     1    131.98614        3.233      1
    3     2    11    12     1     64.23537       12.190      1
    3     4     5     6     1     20.00382        6.253      1
    3     4     5     9     1    102.89041        8.571      1
    3     4     5    10     1    114.01906        4.733      1
    3     4     5    11     1   -115.99113        4.704      1
    3     4    10     5     1   -113.06087        3.978      1
    3     5     4    10     1   -114.01906        4.733      1
    3     5     6     7     1      5.01535       10.086      1
    3     5     6     8     1    168.46985       21.539      1
    3     5     6     9     1   -176.35875       16.991      1
    3     5     9     6     1      2.06793        9.267      1
    3     5    10     4     1     84.95094        4.026      1
    3     5    11    12     1     23.96940        9.290      1
    3    11     5     4     1    102.95421        4.009      1
    3    11     5     6     1    -32.91087        5.519      1
    3    11     5     9     1    -99.08095        8.481      1
    3    11     5    10     1    168.25001        6.262      1
    4     3     2    11     1    -87.94037        4.756      1
    4     3     5     6     1    -39.78118       10.754      1
    4     3     5     9     1    -35.17528       11.471      1
    4     3     5    10     1   -116.04663        3.247      1
    4     3     5    11     1     72.03953        4.765      1
    4     3    11     5     1   -135.00979        3.923      1
    4     3    11    12     1   -103.84443       12.220      1
    4     5     3    11     1    -72.03953        4.765      1
    4     5     6     7     1    140.04214       10.785      1
    4     5     6     8     1    -54.07092       21.731      1
    4     5     6     9     1    -41.41518       12.167      1
    4     5     9     6     1     78.91219        8.547      1
    4     5    11    12     1    -53.96858        9.305      1
    4    10     5     6     1    -66.01629        4.797      1
    4    10     5     9     1     -9.00682        7.082      1
    4    10     5    11     1     95.08882        7.019      1
    5     3     2    11     1   -124.94680        4.003      1
    5     3     4    10     1    112.96124        4.020      1
    5     3    11    12     1   -148.57743       11.471      1
    5     4     3    11     1    122.02598        4.695      1
    5     6     7     8     1     -4.78611       11.449      1
    5     6     8     7     1     12.79534       19.666      1
    5     9     6     7     1     -8.62705       28.242      1
    5     9     6     8     1     -3.03778        8.551      1
    6     5     3    11     1     68.43959       10.729      1
    6     5     4    10     1     85.77337        6.241      1
    6     5    11    12     1    172.97118       11.442      1
    6     9     5    10     1     67.84161        9.306      1
    6     9     5    11     1    -63.06020        7.099      1
    7     6     5     9     1      1.03215       17.018      1
    7     6     5    10     1     73.31419       10.030      1
    7     6     5    11     1    -91.02663       10.054      1
    7     8     6     9     1     -0.07449       13.585      1
    8     6     5     9     1    170.98074       19.826      1
    8     6     5    10     1   -121.23216       20.996      1
    8     6     5    11     1     76.64815       21.065      1
    8     7     6     9     1   -174.32715       25.254      1
    9     5     3    11     1     72.67128       11.393      1
    9     5     4    10     1    167.92800        9.279      1
    9     5    11    12     1    103.53039       11.438      1
    9     6     5    10     1   -109.12786       12.151      1
    9     6     5    11     1     87.77735       13.571      1
   10     4     3    11     1     55.91029        4.775      1
   10     4     5    11     1    -50.00338        4.790      1
   10     5     3    11     1     -9.04256        5.495      1
   10     5    11    12     1     10.96056       10.034      1
