[ moleculetype ]
; name        nrexcl
res           1

[ atoms ]
;    nr  type  resnr resid  atom  cgnr     charge       mass
      1 TC3       1 res   C1        1      0.000     36.000
      2 TC3       1 res   C2        2      0.000     36.000
      3 TN6d      1 res   C3        3      0.000     36.000
      4 TC3       1 res   C4        4      0.000     36.000
      5 TC5       1 res   C5        5      0.000     36.000
      6 TC5       1 res   C6        6      0.000     36.000
      7 TC5       1 res   C7        7      0.000     36.000
      8 TC5       1 res   C8        8      0.000     36.000
      9 TN6d      1 res   C9        9      0.000     36.000
     10 TN2a      1 res   C10      10      0.000     36.000
     11 SC3       1 res   C11      11      0.000     54.000
     12 N4a       1 res   C12      12      0.000     72.000

[ constraints ]
;  ai    aj   funct      b0(nm)
    1     2     1      0.32812
    5    11     1      0.25302
    3     5     1      0.22822
    2     3     1      0.26698
    4     5     1      0.22192
    6     9     1      0.21858
    5    10     1      0.18219
    3    11     1      0.26561
    6     8     1      0.24897
    3     4     1      0.30036
    7     8     1      0.28940
    5     6     1      0.19096
    4    10     1      0.21373
    6     7     1      0.24831
    2    11     1      0.29376
    5     9     1      0.22351

[ bonds ]
;  ai    aj   funct      b0(nm)          k(kJ/mol/nm^2)
   11    12     1      0.37761          19436.0

[ angles ]
;  ai    aj    ak  funct     th0(deg)        k(kJ/mol/rad^2)
    1     2     3     1    123.47692          1335.68
    1     2    11     1     67.84749          1779.30
    2     3     4     1     64.34551          1427.12
    2     3     5     1     95.17698          1839.73
    2     3    11     1     66.94088          5159.68
    2    11     3     1     56.75295          3955.46
    2    11     5     1     83.83792          2703.90
    2    11    12     1    147.95222           511.13
    3     2    11     1     56.30615          5376.37
    3     4     5     1     49.04660          5149.65
    3     4    10     1     48.63536          4038.76
    3     5     4     1     83.70760          3188.78
    3     5     6     1    150.89374          2051.43
    3     5     9     1     88.03295          2035.33
    3     5    10     1     65.71928          2494.75
    3     5    11     1     66.76193          4787.20
    3    11     5     1     52.13939          6888.97
    3    11    12     1    130.72250           232.90
    4     3     5     1     47.24576          9788.74
    4     3    11     1     82.21340          3202.58
    4     5     6     1    117.91735          1603.67
    4     5     9     1    137.16710           344.58
    4     5    10     1     62.96100          2440.24
    4     5    11     1    103.32139          2676.23
    4    10     5     1     67.65042          2924.84
    5     3    11     1     61.09861          3744.65
    5     4    10     1     49.38846          6575.26
    5     6     7     1    127.09628          1516.27
    5     6     8     1    159.75285          1407.68
    5     6     9     1     65.74869          3343.06
    5     9     6     1     51.17210          5267.22
    5    11    12     1     83.66089           328.14
    6     5     9     1     63.07924          3695.97
    6     5    10     1    105.37942          1111.09
    6     5    11     1    120.69207          1053.21
    6     7     8     1     54.51382         11895.64
    6     8     7     1     54.30465         10221.08
    7     6     8     1     71.18152          7434.75
    7     6     9     1    163.40149           859.00
    8     6     9     1     95.03592          1666.91
    9     5    10     1     75.43449           461.19
    9     5    11     1    111.61440           316.98
   10     5    11     1    131.53940          1996.85

[ dihedrals ]
;  ai    aj    ak    al  funct   phi0(deg)        k(kJ/mol)   mult
    1     2     3     4     1    -89.20765       15.731      1
    1     2     3     5     1   -128.08433       15.074      1
    1     2     3    11     1    176.89111       14.373      1
    1     2    11     3     1     -3.07349       12.973      1
    1     2    11     5     1    -52.13648       12.251      1
    1     2    11    12     1   -117.36301       18.248      1
    2     3     4     5     1     55.90144        4.766      1
    2     3     4    10     1    -13.01704        5.555      1
    2     3     5     4     1   -132.96692        5.525      1
    2     3     5     6     1      9.06645       11.471      1
    2     3     5     9     1      9.93116        9.925      1
    2     3     5    10     1    -69.06418        5.551      1
    2     3     5    11     1    120.02306        4.732      1
    2     3    11     5     1    -68.11214        6.284      1
    2     3    11    12     1    -40.56466       10.004      1
    2    11     3     4     1    114.02931        6.268      1
    2    11     3     5     1     68.11214        6.284      1
    2    11     5     3     1   -128.91388        5.514      1
    2    11     5     4     1    155.94623        6.248      1
    2    11     5     6     1     20.03829        6.277      1
    2    11     5     9     1    -48.87805        7.061      1
    2    11     5    10     1   -139.77103        7.808      1
    3     2    11     5     1    132.91081        3.962      1
    3     2    11    12     1     67.08372       19.661      1
    3     4     5     6     1     20.01745        6.273      1
    3     4     5     9     1    101.47053        8.476      1
    3     4     5    10     1    113.06293        4.026      1
    3     4     5    11     1   -115.06002        3.959      1
    3     4    10     5     1   -113.95538        4.733      1
    3     5     4    10     1   -113.06293        4.026      1
    3     5     6     7     1      5.49716       13.634      1
    3     5     6     8     1    169.53248       22.606      1
    3     5     6     9     1    176.07281       13.601      1
    3     5     9     6     1     -1.04377        7.048      1
    3     5    10     4     1     84.03030        4.778      1
    3     5    11    12     1     25.08280        9.999      1
    3    11     5     4     1    102.07772        4.747      1
    3    11     5     6     1    -31.05410        5.522      1
    3    11     5     9     1   -100.88043        6.984      1
    3    11     5    10     1    168.05641        6.317      1
    4     3     2    11     1    -87.05935        5.524      1
    4     3     5     6     1    -39.83919       12.164      1
    4     3     5     9     1    -37.88006        9.882      1
    4     3     5    10     1   -116.96942        5.504      1
    4     3     5    11     1     72.05267        4.737      1
    4     3    11     5     1   -134.99855        2.462      1
    4     3    11    12     1   -104.13552       10.725      1
    4     5     3    11     1    -72.05267        4.737      1
    4     5     6     7     1    141.93036       13.620      1
    4     5     6     8     1    -55.78143       26.405      1
    4     5     6     9     1    -43.79628        9.919      1
    4     5     9     6     1     76.98903        7.031      1
    4     5    11    12     1    -52.99911       10.002      1
    4    10     5     6     1    -66.03011        4.758      1
    4    10     5     9     1     -8.92039        8.486      1
    4    10     5    11     1     96.04407        6.279      1
    5     3     2    11     1   -125.86115        4.729      1
    5     3     4    10     1    112.95701        4.025      1
    5     3    11    12     1   -148.85648       10.036      1
    5     4     3    11     1    122.95996        4.000      1
    5     6     7     8     1     -4.25104       13.643      1
    5     6     8     7     1     13.22500       25.119      1
    5     9     6     7     1    -18.13958       24.718      1
    5     9     6     8     1     -3.89537       12.180      1
    6     5     3    11     1     69.07443       11.464      1
    6     5     4    10     1     86.00904        6.309      1
    6     5    11    12     1    172.94866       10.050      1
    6     9     5    10     1     65.05972        8.513      1
    6     9     5    11     1    -65.04178        7.055      1
    7     6     5     9     1      4.67729       14.276      1
    7     6     5    10     1     72.82073       12.946      1
    7     6     5    11     1    -92.24815       12.240      1
    7     8     6     9     1      5.04201       12.117      1
    8     6     5     9     1    174.86482       25.694      1
    8     6     5    10     1   -122.10574       24.017      1
    8     6     5    11     1     73.81412       23.963      1
    8     7     6     9     1   -161.51767       25.655      1
    9     5     3    11     1     70.52241       10.621      1
    9     5     4    10     1    168.28858       10.617      1
    9     5    11    12     1    102.91453       10.078      1
    9     6     5    10     1   -111.58745        9.866      1
    9     6     5    11     1     83.78555       11.348      1
   10     4     3    11     1     54.99249        5.552      1
   10     4     5    11     1    -49.98647        4.792      1
   10     5     3    11     1     -9.03126        5.547      1
   10     5    11    12     1     12.97016       11.465      1
