[ moleculetype ]
; name        nrexcl
res           1

[ atoms ]
;    nr  type  resnr resid  atom  cgnr     charge       mass
      1 N4a       1 res   C1        1      0.000     72.000
      2 TC5       1 res   C2        2      0.000     36.000
      3 TN4a      1 res   C3        3      0.000     36.000
      4 SP4       1 res   C4        4      0.000     54.000
      5 TN4a      1 res   C5        5      0.000     36.000
      6 TP1       1 res   C6        6      0.000     36.000
      7 SP4       1 res   C7        7      0.000     54.000
      8 SC3       1 res   C8        8      0.000     54.000
      9 TC5       1 res   C9        9      0.000     36.000
     10 TC5       1 res   C10      10      0.000     36.000
     11 TN6d      1 res   C11      11      0.000     36.000
     12 TC3       1 res   C12      12      0.000     36.000
     13 TN6d      1 res   C13      13      0.000     36.000
     14 TC5       1 res   C14      14      0.000     36.000
     15 TC5       1 res   C15      15      0.000     36.000
     16 TC5       1 res   C16      16      0.000     36.000

[ constraints ]
;  ai    aj   funct      b0(nm)
    4     5     1      0.28658
   13    14     1      0.21851
    9    10     1      0.25743
   10    12     1      0.30013
   14    15     1      0.24995
    5     6     1      0.21927
   15    16     1      0.29157
    1     2     1      0.32552
   10    11     1      0.24316
    2     3     1      0.22690
   11    12     1      0.22597
    3     8     1      0.27389
   12    14     1      0.29122
   10    13     1      0.23514
    3     4     1      0.32024
    2     8     1      0.29430
   14    16     1      0.25011
    8     9     1      0.20926

[ bonds ]
;  ai    aj   funct      b0(nm)          k(kJ/mol/nm^2)
    5     7     1      0.24722          17602.8
    4     7     1      0.28228          16399.3

[ angles ]
;  ai    aj    ak  funct     th0(deg)        k(kJ/mol/rad^2)
    1     2     3     1    147.37105           187.24
    1     2     8     1     93.67709           872.32
    2     3     4     1    143.67786           326.44
    2     3     8     1     71.28272          2423.95
    2     8     3     1     46.92243          2103.72
    2     8     9     1    141.17310           291.69
    3     2     8     1     61.79463          2059.77
    3     4     5     1     85.10987           138.28
    3     4     7     1    128.35062           208.97
    3     8     9     1     96.57572           662.55
    4     3     8     1    123.13071           611.08
    4     5     6     1    118.09421            24.83
    4     5     7     1     63.32770           702.10
    4     7     5     1     65.21382           635.92
    5     4     7     1     51.45928          1106.41
    6     5     7     1     87.78049           308.83
    8     9    10     1    109.53992          1073.57
    9    10    11     1     88.74236           100.49
    9    10    12     1    107.36908            71.25
    9    10    13     1     88.97457           151.20
   10    11    12     1     79.54492           745.48
   10    12    11     1     52.73821          1474.51
   10    12    14     1     66.70809          2819.56
   10    13    14     1     91.53919          1298.87
   11    10    12     1     47.71689          1601.87
   11    10    13     1    139.90783           444.21
   11    12    14     1    117.59543          1739.23
   12    10    13     1     96.73848          1991.41
   12    14    13     1    103.37080          2677.45
   12    14    15     1    159.07320           992.96
   12    14    16     1     88.50434          1261.17
   13    14    15     1     96.46491          1565.44
   13    14    16     1    166.68337          1224.15
   14    15    16     1     54.35592         14359.20
   14    16    15     1     54.30892         11788.53
   15    14    16     1     71.33516          7739.92

[ dihedrals ]
;  ai    aj    ak    al  funct   phi0(deg)        k(kJ/mol)   mult
    1     2     3     4     1     14.66381       21.453      1
    1     2     3     8     1    139.51425       17.049      1
    1     2     8     3     1    -24.65365       12.956      1
    1     2     8     9     1    -40.08983       17.806      1
    2     3     4     5     1   -125.25824       21.598      1
    2     3     4     7     1   -135.88152       27.921      1
    2     3     8     9     1    -13.94277       10.747      1
    2     8     3     4     1    -34.80454       12.864      1
    2     8     9    10     1   -114.04264       15.020      1
    3     2     8     9     1    158.35924       13.585      1
    3     4     5     6     1    -65.20462       23.974      1
    3     4     5     7     1      8.42478       28.575      1
    3     4     7     5     1   -161.39414       31.363      1
    3     8     9    10     1   -132.33182       13.620      1
    4     3     2     8     1     56.50345       14.212      1
    4     3     8     9     1    130.88392       12.923      1
    4     7     5     6     1    -60.87995       21.597      1
    5     4     3     8     1    134.00197       19.515      1
    6     5     4     7     1    106.11848       17.853      1
    7     4     3     8     1    125.09292       27.331      1
    8     9    10    11     1    -55.25139       15.678      1
    8     9    10    12     1    -11.38831       12.927      1
    8     9    10    13     1     85.50417       13.612      1
    9    10    11    12     1    -62.08123       20.365      1
    9    10    12    11     1    109.19536       18.410      1
    9    10    12    14     1    -79.37354       12.157      1
    9    10    13    14     1     64.03095       17.814      1
   10    11    12    14     1    171.22227       19.715      1
   10    12    14    13     1    171.01299        8.550      1
   10    12    14    15     1     -7.39533       23.895      1
   10    12    14    16     1     -8.96902       11.458      1
   10    13    14    12     1   -169.69407        9.292      1
   10    13    14    15     1      7.15520       11.456      1
   10    13    14    16     1      4.46095       29.307      1
   11    10    12    14     1     -7.77257       19.034      1
   11    10    13    14     1    153.11924       21.034      1
   11    12    10    13     1     15.01530       18.430      1
   11    12    14    13     1    177.33554       18.937      1
   11    12    14    15     1      2.30013       26.683      1
   11    12    14    16     1      0.39363       20.931      1
   12    10    13    14     1    170.04112        9.278      1
   12    11    10    13     1   -156.00269       23.134      1
   12    14    15    16     1    178.08058       23.856      1
   12    14    16    15     1     -0.98272       11.481      1
   13    10    12    14     1   -172.00691        7.795      1
   13    14    15    16     1      0.20965       10.757      1
   13    14    16    15     1   -176.96848       27.148      1
