[ moleculetype ]
; name        nrexcl
res           1

[ atoms ]
;    nr  type  resnr resid  atom  cgnr     charge       mass
      1 SX4e      1 res   C1        1      0.000     54.000
      2 SX4e      1 res   C2        2      0.000     54.000
      3 SX4e      1 res   C3        3      0.000     54.000

[ bonds ]
;  ai    aj   funct      b0(nm)          k(kJ/mol/nm^2)
    1     2     1      0.29397         277749.4
    1     3     1      0.30210         323830.0
    2     3     1      0.29815         144945.2

[ angles ]
;  ai    aj    ak  funct     th0(deg)        k(kJ/mol/rad^2)
    1     2     3     1     61.34596         12692.52
    1     3     2     1     58.64510          8703.02
    2     1     3     1     60.00895          7088.25

[ dihedrals ]
;  ai    aj    ak    al  funct   phi0(deg)        k(kJ/mol)   mult
