1TPCN02717
19
    1res  C1    1   -0.103  -0.314   0.317
    1res  C2    2    0.100  -0.199   0.242
    1res  C3    3    0.215  -0.064   0.106
    1res  C4    4   -0.015  -0.084  -0.017
    1res  C5    5   -0.129  -0.143  -0.254
    1res  C6    6   -0.032  -0.345  -0.484
    1res  C7    7   -0.292  -0.203  -0.465
    1res  C8    8   -0.381  -0.291  -0.287
    1res  C9    9   -0.374  -0.138  -0.128
    1res  C10   10   -0.318   0.076   0.060
    1res  C11   11   -0.172   0.352   0.126
    1res  C12   12   -0.425   0.211   0.282
    1res  C13   13   -0.612   0.230   0.126
    1res  C14   14   -0.618   0.036   0.015
    1res  C15   15    0.358   0.029  -0.065
    1res  C16   16    0.257   0.262  -0.116
    1res  C17   17    0.453   0.421  -0.021
    1res  C18   18    0.613   0.218   0.047
    1res  C19   19    0.446  -0.073   0.205
  10.00000  10.00000  10.00000
