1TPCN00543
13
    1res  C1    1    0.336   0.304   0.032
    1res  C2    2    0.292   0.233   0.316
    1res  C3    3    0.069   0.083   0.131
    1res  C4    4   -0.042  -0.085   0.054
    1res  C5    5   -0.242  -0.026  -0.015
    1res  C6    6   -0.270   0.100   0.163
    1res  C7    7   -0.408   0.030   0.008
    1res  C8    8   -0.607   0.142   0.111
    1res  C9    9   -0.609  -0.028  -0.129
    1res  C10   10   -0.178  -0.150  -0.189
    1res  C11   11    0.001  -0.337  -0.259
    1res  C12   12    0.184  -0.127  -0.044
    1res  C13   13    0.513  -0.167  -0.016
  10.00000  10.00000  10.00000
