[ moleculetype ]
; name        nrexcl
res           1

[ atoms ]
;    nr  type  resnr resid  atom  cgnr     charge       mass
      1 SC4       1 res   C1        1      0.000     54.000
      2 TN4a      1 res   C2        2      0.000     36.000
      3 TC3       1 res   C3        3      0.000     36.000
      4 TN6d      1 res   C4        4      0.000     36.000
      5 TC5       1 res   C5        5      0.000     36.000
      6 TN6d      1 res   C6        6      0.000     36.000
      7 TC5       1 res   C7        7      0.000     36.000
      8 TC5       1 res   C8        8      0.000     36.000
      9 TC5       1 res   C9        9      0.000     36.000
     10 TC3       1 res   C10      10      0.000     36.000
     11 SP2       1 res   C11      11      0.000     54.000
     12 TC5       1 res   C12      12      0.000     36.000
     13 N4a       1 res   C13      13      0.000     72.000

[ constraints ]
;  ai    aj   funct      b0(nm)
    1     2     1      0.28812
   10    11     1      0.26225
    4     5     1      0.21860
    5    10     1      0.22567
    7     9     1      0.25005
    5     7     1      0.18359
    3     4     1      0.24449
    7     8     1      0.24968
    5     6     1      0.21831
    4    10     1      0.27326
    6     7     1      0.21786
   12    13     1      0.32290
    3    12     1      0.30336
    8     9     1      0.29138
    4    12     1      0.25904

[ bonds ]
;  ai    aj   funct      b0(nm)          k(kJ/mol/nm^2)
    1     3     1      0.38149           7807.3

[ angles ]
;  ai    aj    ak  funct     th0(deg)        k(kJ/mol/rad^2)
    1     3     4     1    127.12874            32.82
    1     3    12     1     93.64821            74.17
    2     1     3     1     58.75528           179.48
    3     4     5     1    105.71655           643.96
    3     4    10     1    139.01824           162.09
    3     4    12     1     74.15782           605.75
    3    12     4     1     50.71008          1861.88
    3    12    13     1    107.88847           419.65
    4     3    12     1     55.13186          1149.50
    4     5     6     1     93.50627           857.96
    4     5     7     1    157.20253           635.49
    4     5    10     1     75.89758           912.50
    4    10     5     1     50.83876          4744.70
    4    10    11     1    101.25653           539.42
    4    12    13     1    152.84990           194.72
    5     4    10     1     53.26340          1156.17
    5     4    12     1    120.48229            53.46
    5     6     7     1     49.78662          6247.70
    5     7     6     1     65.23469          4093.38
    5     7     8     1    160.82597          1175.73
    5     7     9     1    126.55115          1508.28
    5    10    11     1    145.09565           174.65
    6     5     7     1     64.97866          5545.99
    6     5    10     1    166.30228           512.00
    6     7     8     1     96.38800          1271.44
    6     7     9     1    166.15667           883.75
    7     5    10     1    124.29787          1627.49
    7     8     9     1     54.39124         10946.34
    7     9     8     1     54.27346         10839.40
    8     7     9     1     71.33531          6858.83
   10     4    12     1     88.35382           330.36

[ dihedrals ]
;  ai    aj    ak    al  funct   phi0(deg)        k(kJ/mol)   mult
    1     3     4     5     1   -113.53994       27.899      1
    1     3     4    10     1   -162.38946       30.394      1
    1     3     4    12     1    133.55421       26.597      1
    1     3    12     4     1    -36.87197       25.496      1
    1     3    12    13     1    125.91376       22.946      1
    2     1     3     4     1    164.71299       28.573      1
    2     1     3    12     1    121.04046       28.959      1
    3     4     5     6     1   -133.35856       17.066      1
    3     4     5     7     1   -123.92008       24.443      1
    3     4     5    10     1     39.04157       12.943      1
    3     4    10     5     1   -112.83362       11.418      1
    3     4    10    11     1     93.02850       18.284      1
    3     4    12    13     1    153.39517       26.078      1
    3    12     4     5     1     79.80927        9.280      1
    3    12     4    10     1     37.05731       14.374      1
    4     3    12    13     1    -14.20977       19.079      1
    4     5     6     7     1     -4.05736       12.193      1
    4     5     7     6     1    169.47244       23.432      1
    4     5     7     8     1    168.74822       26.287      1
    4     5     7     9     1    -10.00725       25.103      1
    4     5    10    11     1   -144.73167       22.996      1
    4    10     5     6     1   -156.69292       26.789      1
    4    10     5     7     1     -9.18645       14.333      1
    5     4     3    12     1    -65.85186       19.197      1
    5     4    10    11     1     21.04227       16.889      1
    5     4    12    13     1     52.20516       27.528      1
    5     6     7     8     1     -1.75840       10.779      1
    5     6     7     9     1      2.37558       28.675      1
    5     7     8     9     1      1.76074       25.548      1
    5     7     9     8     1     -1.93608       13.617      1
    5    10     4    12     1    -50.53260       19.624      1
    6     5     4    10     1      7.39115       11.462      1
    6     5     4    12     1    -48.47036       20.421      1
    6     5     7     8     1    179.16661       23.419      1
    6     5     7     9     1      1.06096       15.697      1
    6     5    10    11     1   -117.21656       30.774      1
    6     7     5    10     1     10.87680       14.331      1
    6     7     8     9     1      0.00284       13.607      1
    6     7     9     8     1    178.05890       28.560      1
    7     5     4    10     1     17.80926       22.738      1
    7     5     4    12     1    -41.45845       26.621      1
    7     5    10    11     1     26.46163       25.855      1
    7     6     5    10     1    -26.25482       27.038      1
    8     7     5    10     1      5.99781       25.595      1
    9     7     5    10     1   -170.08312       16.441      1
   10     4     3    12     1   -116.73447       18.477      1
   10     4    12    13     1      9.49534       25.903      1
   10     5     4    12     1    123.05452       18.461      1
   11    10     4    12     1    151.44307       24.097      1
