[ moleculetype ]
; name        nrexcl
res           1

[ atoms ]
;    nr  type  resnr resid  atom  cgnr     charge       mass
      1 TC3       1 res   C1        1      0.000     36.000
      2 TC3       1 res   C2        2      0.000     36.000
      3 TN6d      1 res   C3        3      0.000     36.000
      4 TC3       1 res   C4        4      0.000     36.000
      5 TC5       1 res   C5        5      0.000     36.000
      6 TN6d      1 res   C6        6      0.000     36.000
      7 TC5       1 res   C7        7      0.000     36.000
      8 TC5       1 res   C8        8      0.000     36.000
      9 TC5       1 res   C9        9      0.000     36.000
     10 TC3       1 res   C10      10      0.000     36.000
     11 TC5       1 res   C11      11      0.000     36.000
     12 TP1d      1 res   C12      12      0.000     36.000
     13 N4a       1 res   C13      13      0.000     72.000

[ bonds ]
;  ai    aj   funct      b0(nm)          k(kJ/mol/nm^2)
    1     2     1      0.26706          31700.9
    2     3     1      0.27644          34433.5
    2    10     1      0.29542          20739.6
    3     4     1      0.26879          41679.0
    3     5     1      0.21666         108191.7
    3    10     1      0.24793         103977.4
    4     5     1      0.24613         119416.1
    5     6     1      0.21895         162187.7
    5     7     1      0.18346         360116.3
    6     7     1      0.21881         165670.8
    7     8     1      0.25008         309804.7
    7     9     1      0.25009         264574.1
    8     9     1      0.29148         214561.8
   10    11     1      0.27374          18378.7
   11    12     1      0.26442          90329.4

[ angles ]
;  ai    aj    ak  funct     th0(deg)        k(kJ/mol/rad^2)
    1     2     3     1    115.04233            71.94
    1     2    10     1     71.68607           337.45
    2     3     4     1     81.08883           943.67
    2     3     5     1    100.41585           102.99
    2     3    10     1     68.31493          2231.39
    2    10     3     1     60.40237          3720.13
    2    10    11     1     66.19335           697.84
    3     2    10     1     51.28275          2991.82
    3     4     5     1     49.51257          4367.20
    3     5     4     1     70.68063          1729.34
    3     5     6     1     93.92391           846.15
    3     5     7     1    158.03416           713.28
    3    10    11     1     63.33669           318.86
    4     3     5     1     59.80665          1982.22
    4     3    10     1    143.53933           214.16
    4     5     6     1    163.13377           662.01
    4     5     7     1    129.21384          1012.17
    5     3    10     1    107.40145           921.90
    5     6     7     1     49.55333          6287.80
    5     7     6     1     65.26237          3827.92
    5     7     8     1    161.07002          1908.46
    5     7     9     1    126.75314          2379.69
    6     5     7     1     65.18437          3798.24
    6     7     8     1     96.37087          1551.48
    6     7     9     1    166.42551          1022.91
    7     8     9     1     54.35494         10115.86
    7     9     8     1     54.35097         11699.92
    8     7     9     1     71.29411          6744.22
   10    11    12     1    156.35330           175.18
