1TPCN04467
22
    1res  C1    1    1.059  -0.134   0.066
    1res  C2    2    0.828   0.116   0.092
    1res  C3    3    0.609   0.188   0.227
    1res  C4    4    0.441  -0.011   0.242
    1res  C5    5    0.275   0.131   0.124
    1res  C6    6    0.401  -0.097  -0.153
    1res  C7    7    0.145   0.099  -0.112
    1res  C8    8   -0.003  -0.084  -0.255
    1res  C9    9    0.035  -0.358  -0.230
    1res  C10   10   -0.215  -0.355  -0.336
    1res  C11   11   -0.315  -0.177  -0.164
    1res  C12   12   -0.084   0.057   0.011
    1res  C13   13   -0.267   0.175   0.185
    1res  C14   14   -0.327  -0.069   0.337
    1res  C15   15   -0.510   0.171   0.321
    1res  C16   16   -0.476   0.328   0.147
    1res  C17   17   -0.462   0.145   0.009
    1res  C18   18   -0.703   0.111  -0.091
    1res  C19   19   -0.982   0.211  -0.037
    1res  C20   20   -0.898   0.010  -0.247
    1res  C21   21   -0.846  -0.192  -0.127
    1res  C22   22   -0.635  -0.150  -0.010
  10.00000  10.00000  10.00000
