[ moleculetype ]
; name        nrexcl
res           1

[ atoms ]
;    nr  type resnr resid  atom  cgnr     charge       mass
      1 C4        1 res   C1        1      0.000     72.000
      2 SN4a      1 res   C2        2      0.000     54.000
      3 TC3       1 res   C3        3      0.000     36.000
      4 SN4a      1 res   C4        4      0.000     54.000
      5 C1        1 res   C5        5      0.000     72.000
      6 SC5       1 res   C6        6      0.000     54.000
      7 TP1       1 res   C7        7      0.000     36.000
      8 SC4       1 res   C8        8      0.000     54.000
      9 SC4       1 res   C9        9      0.000     54.000
     10 TC3       1 res   C10      10      0.000     36.000
     11 SC4       1 res   C11      11      0.000     54.000
     12 SC4       1 res   C12      12      0.000     54.000
     13 TC3       1 res   C13      13      0.000     36.000
     14 TN6       1 res   C14      14      0.000     36.000
     15 SN4a      1 res   C15      15      0.000     54.000
     16 SP2       1 res   C16      16      0.000     54.000
     17 TN6       1 res   C17      17      0.000     36.000
     18 TN6       1 res   C18      18      0.000     36.000
     19 SN4a      1 res   C19      19      0.000     54.000
     20 TP1       1 res   C20      20      0.000     36.000
     21 TN6       1 res   C21      21      0.000     36.000
     22 TN6       1 res   C22      22      0.000     36.000
     23 TN6       1 res   C23      23      0.000     36.000
     24 SN4a      1 res   C24      24      0.000     54.000
     25 TN6       1 res   C25      25      0.000     36.000
     26 TN6       1 res   C26      26      0.000     36.000
     27 TN6       1 res   C27      27      0.000     36.000
     28 TN6       1 res   C28      28      0.000     36.000
     29 SN4a      1 res   C29      29      0.000     54.000
     30 TP1       1 res   C30      30      0.000     36.000
     31 TN6       1 res   C31      31      0.000     36.000
     32 TN6       1 res   C32      32      0.000     36.000
     33 TN6       1 res   C33      33      0.000     36.000
     34 TC4       1 res   C34      34      0.000     36.000
     35 TN4a      1 res   C35      35      0.000     36.000
     36 TC3       1 res   C36      36      0.000     36.000
     37 TN6       1 res   C37      37      0.000     36.000
     38 TN6       1 res   C38      38      0.000     36.000

[ bonds ]
;  ai    aj   funct      b0(nm)        k
    1     2     1      0.26065    20000
    2     3     1      0.25609    20000
    3     4     1      0.28012    20000
    3     6     1      0.27811    20000
    3     8     1      0.31679    20000
    4     5     1      0.25118    20000
    6     7     1      0.33554    20000
    6     8     1      0.27765    20000
    6     9     1      0.30567    20000
    6    38     1      0.37188    20000
    9    10     1      0.39701    20000
    9    11     1      0.27552    20000
    9    37     1      0.30881    20000
   10    11     1      0.26328    20000
   11    12     1      0.31047    20000
   11    36     1      0.26683    20000
   12    13     1      0.28281    20000
   12    34     1      0.27837    20000
   12    36     1      0.38102    20000
   13    14     1      0.25195    20000
   14    15     1      0.27289    20000
   14    34     1      0.27838    20000
   15    16     1      0.24885    20000
   15    17     1      0.27653    20000
   15    28     1      0.26752    20000
   17    18     1      0.24170    20000
   18    19     1      0.24875    20000
   18    28     1      0.20905    20000
   19    20     1      0.30971    20000
   19    21     1      0.29185    20000
   19    23     1      0.25786    20000
   21    22     1      0.23604    20000
   22    23     1      0.22442    20000
   23    24     1      0.27873    20000
   24    25     1      0.25116    20000
   24    27     1      0.30428    20000
   25    26     1      0.21318    20000
   26    27     1      0.24065    20000
   28    29     1      0.26716    20000
   29    30     1      0.25580    20000
   29    31     1      0.25439    20000
   29    33     1      0.30093    20000
   31    32     1      0.24251    20000
   32    33     1      0.25573    20000
   34    35     1      0.27223    20000
   37    38     1      0.22137    20000
