1TPCN04533
38
    1res  C1    1    1.370   0.258   0.153
    1res  C2    2    1.159   0.183   0.020
    1res  C3    3    0.906   0.181  -0.019
    1res  C4    4    0.777   0.269   0.214
    1res  C5    5    0.775   0.170   0.445
    1res  C6    6    0.768  -0.056  -0.066
    1res  C7    7    0.779   0.219  -0.259
    1res  C8    8    1.025  -0.109   0.023
    1res  C9    9    0.545  -0.047  -0.276
    1res  C10   10    0.449  -0.239   0.058
    1res  C11   11    0.342  -0.208  -0.181
    1res  C12   12    0.100  -0.285  -0.003
    1res  C13   13   -0.036  -0.041   0.046
    1res  C14   14   -0.210  -0.094  -0.128
    1res  C15   15   -0.417  -0.020  -0.290
    1res  C16   16   -0.349   0.200  -0.384
    1res  C17   17   -0.672   0.010  -0.393
    1res  C18   18   -0.669   0.050  -0.155
    1res  C19   19   -0.906   0.025  -0.229
    1res  C20   20   -1.078  -0.141  -0.426
    1res  C21   21   -1.154  -0.107  -0.149
    1res  C22   22   -1.158   0.115  -0.068
    1res  C23   23   -0.946   0.131   0.003
    1res  C24   24   -0.963   0.196   0.273
    1res  C25   25   -0.972   0.353   0.469
    1res  C26   26   -0.997   0.523   0.343
    1res  C27   27   -0.949   0.457   0.116
    1res  C28   28   -0.546  -0.094  -0.067
    1res  C29   29   -0.569  -0.255   0.145
    1res  C30   30   -0.591  -0.092   0.341
    1res  C31   31   -0.751  -0.358   0.290
    1res  C32   32   -0.648  -0.538   0.164
    1res  C33   33   -0.721  -0.423  -0.052
    1res  C34   34   -0.148  -0.364  -0.102
    1res  C35   35   -0.151  -0.267  -0.356
    1res  C36   36    0.157  -0.067  -0.310
    1res  C37   37    0.392   0.180  -0.134
    1res  C38   38    0.540   0.223   0.025
  10.00000  10.00000  10.00000
