[ moleculetype ]
; name        nrexcl
res           1

[ atoms ]
;    nr  type resnr resid  atom  cgnr     charge       mass
      1 P1        1 res   C1        1      0.000     72.000
      2 TN4a      1 res   C2        2      0.000     36.000
      3 TC3       1 res   C3        3      0.000     36.000
      4 TC4       1 res   C4        4      0.000     36.000
      5 TC5       1 res   C5        5      0.000     36.000
      6 TN6       1 res   C6        6      0.000     36.000
      7 SC4       1 res   C7        7      0.000     54.000
      8 SC4       1 res   C8        8      0.000     54.000
      9 TC3       1 res   C9        9      0.000     36.000
     10 SC4       1 res   C10      10      0.000     54.000
     11 SC4       1 res   C11      11      0.000     54.000
     12 TN6       1 res   C12      12      0.000     36.000
     13 SN4a      1 res   C13      13      0.000     54.000
     14 TP1       1 res   C14      14      0.000     36.000
     15 TN6       1 res   C15      15      0.000     36.000
     16 TN6       1 res   C16      16      0.000     36.000
     17 TN6       1 res   C17      17      0.000     36.000
     18 TC3       1 res   C18      18      0.000     36.000
     19 TC3       1 res   C19      19      0.000     36.000
     20 TN2a      1 res   C20      20      0.000     36.000

[ bonds ]
;  ai    aj   funct      b0(nm)        k
    1     2     1      0.23773    20000
    2     3     1      0.23757    20000
    2     4     1      0.27545    20000
    3     4     1      0.29301    20000
    4     5     1      0.30312    20000
    5     6     1      0.26237    20000
    5     7     1      0.25292    20000
    5    19     1      0.32758    20000
    5    20     1      0.24827    20000
    6     7     1      0.29067    20000
    7     8     1      0.25877    20000
    8     9     1      0.24537    20000
    8    10     1      0.19447    20000
    8    19     1      0.29976    20000
    9    10     1      0.32918    20000
   10    11     1      0.34164    20000
   10    18     1      0.29926    20000
   11    12     1      0.24837    20000
   12    13     1      0.31732    20000
   12    18     1      0.24858    20000
   13    14     1      0.25331    20000
   13    15     1      0.28640    20000
   13    17     1      0.29566    20000
   15    16     1      0.25827    20000
   16    17     1      0.24643    20000
