1TPCN06197
32
    1res  C1    1    0.650  -0.227  -0.277
    1res  C2    2    0.702   0.061  -0.345
    1res  C3    3    0.657  -0.007  -0.057
    1res  C4    4    0.888   0.072  -0.083
    1res  C5    5    1.070  -0.106   0.119
    1res  C6    6    1.123  -0.362   0.280
    1res  C7    7    1.329  -0.135   0.136
    1res  C8    8    1.285   0.116   0.161
    1res  C9    9    1.064   0.147   0.147
    1res  C10   10    0.572   0.254  -0.038
    1res  C11   11    0.476   0.054   0.125
    1res  C12   12    0.296  -0.073  -0.205
    1res  C13   13    0.224   0.216   0.027
    1res  C14   14   -0.010   0.028  -0.190
    1res  C15   15   -0.088   0.282  -0.043
    1res  C16   16   -0.296   0.145  -0.043
    1res  C17   17   -0.600   0.258  -0.011
    1res  C18   18   -0.688   0.268   0.249
    1res  C19   19   -0.621   0.041   0.207
    1res  C20   20   -0.729  -0.167   0.368
    1res  C21   21   -0.915   0.025   0.455
    1res  C22   22   -0.986  -0.308   0.375
    1res  C23   23   -0.929  -0.296   0.148
    1res  C24   24   -0.711  -0.317   0.133
    1res  C25   25   -0.605   0.007  -0.001
    1res  C26   26   -0.652  -0.053  -0.197
    1res  C27   27   -0.697   0.199  -0.389
    1res  C28   28   -0.911   0.044  -0.455
    1res  C29   29   -0.849  -0.195  -0.380
    1res  C30   30   -0.884  -0.095  -0.158
    1res  C31   31   -0.244  -0.087   0.024
    1res  C32   32    0.123  -0.014   0.155
  10.00000  10.00000  10.00000
