1TPCN00690
15
    1res  C1    1   -0.517   0.350  -0.063
    1res  C2    2   -0.327   0.265   0.065
    1res  C3    3   -0.405   0.006  -0.065
    1res  C4    4   -0.211   0.078   0.125
    1res  C5    5   -0.056   0.104  -0.061
    1res  C6    6   -0.225   0.235  -0.167
    1res  C7    7    0.036   0.187  -0.351
    1res  C8    8    0.078   0.061  -0.183
    1res  C9    9    0.199  -0.064  -0.251
    1res  C10   10    0.327  -0.106  -0.083
    1res  C11   11    0.406  -0.152   0.128
    1res  C12   12    0.584  -0.219   0.302
    1res  C13   13    0.662  -0.279   0.029
    1res  C14   14   -0.057  -0.074   0.059
    1res  C15   15   -0.106  -0.185   0.161
  10.00000  10.00000  10.00000
