[ moleculetype ]
; name        nrexcl
res           1

[ atoms ]
;    nr  type  resnr resid  atom  cgnr     charge       mass
      1 TC4       1 res   C1        1      0.000     36.000
      2 TC5       1 res   C2        2      0.000     36.000
      3 TN6       1 res   C3        3      0.000     36.000
      4 TC5       1 res   C4        4      0.000     36.000

[ bonds ]
;  ai    aj   funct      b0(nm)          k(kJ/mol/nm^2)
    1     2     1      0.32753          93387.8
    1     4     1      0.32766          79739.2
    2     3     1      0.31241         126974.0
    3     4     1      0.28131          97216.3

[ angles ]
;  ai    aj    ak  funct     th0(deg)        k(kJ/mol/rad^2)
    1     2     3     1    111.10399          2760.37
    1     4     3     1    119.95883          2977.40
    2     1     4     1     60.88098         11160.18
    2     3     4     1     67.75653         10700.38

[ dihedrals ]
;  ai    aj    ak    al  funct   phi0(deg)        k(kJ/mol)   mult
    1     2     3     4     1    179.99329        7.858      1
    1     2     3     4     1    179.98658        7.742      2
    1     2     3     4     1    179.97988        7.551      3
    1     4     3     2     1    179.08926        8.588      1
    1     4     3     2     1    178.17950        8.435      2
    1     4     3     2     1    177.27179        8.184      3
    2     1     4     3     1   -179.08870        8.588      1
    2     1     4     3     1   -178.17838        8.435      2
    2     1     4     3     1   -177.27006        8.184      3
    3     2     1     4     1    179.99054        7.810      1
    3     2     1     4     1    179.98116        7.696      2
    3     2     1     4     1    179.97194        7.508      3
