1TPCN04570
34
    1res  C1    1   -0.598  -0.544   0.172
    1res  C2    2   -0.623  -0.367  -0.066
    1res  C3    3   -0.635  -0.194  -0.209
    1res  C4    4   -0.522   0.042  -0.174
    1res  C5    5   -0.299  -0.114  -0.101
    1res  C6    6   -0.048  -0.339  -0.016
    1res  C7    7   -0.309  -0.407   0.020
    1res  C8    8   -0.116  -0.596  -0.104
    1res  C9    9    0.080  -0.212   0.210
    1res  C10   10    0.236  -0.113  -0.120
    1res  C11   11    0.178   0.093   0.186
    1res  C12   12    0.389   0.244   0.096
    1res  C13   13    0.506   0.220  -0.138
    1res  C14   14    0.727   0.131  -0.091
    1res  C15   15    0.966   0.299  -0.173
    1res  C16   16    0.960   0.546  -0.014
    1res  C17   17    1.128   0.329   0.056
    1res  C18   18    1.152   0.094   0.008
    1res  C19   19    1.046   0.092  -0.199
    1res  C20   20    0.748   0.049   0.159
    1res  C21   21    0.655  -0.159  -0.010
    1res  C22   22    0.403  -0.058   0.259
    1res  C23   23   -0.143  -0.062   0.182
    1res  C24   24   -0.618   0.265  -0.019
    1res  C25   25   -0.489   0.468   0.009
    1res  C26   26   -0.672   0.642   0.151
    1res  C27   27   -0.355   0.674   0.181
    1res  C28   28   -0.272   0.617  -0.056
    1res  C29   29   -0.231   0.389  -0.044
    1res  C30   30   -0.814   0.076  -0.158
    1res  C31   31   -0.775  -0.048  -0.340
    1res  C32   32   -0.784  -0.427  -0.239
    1res  C33   33   -0.918  -0.428  -0.023
    1res  C34   34   -0.857  -0.588   0.121
  10.00000  10.00000  10.00000
