1TPCN00516
21
    1res  C1    1    0.169  -0.293  -0.373
    1res  C2    2   -0.051  -0.066  -0.223
    1res  C3    3    0.070   0.018  -0.059
    1res  C4    4    0.299   0.056  -0.116
    1res  C5    5    0.487   0.112   0.064
    1res  C6    6    0.536  -0.037  -0.089
    1res  C7    7    0.653   0.055   0.071
    1res  C8    8    0.820  -0.070  -0.003
    1res  C9    9    1.129  -0.067   0.121
    1res  C10   10    0.835   0.133   0.224
    1res  C11   11    0.374   0.269   0.212
    1res  C12   12    0.165   0.069   0.144
    1res  C13   13   -0.135   0.087  -0.019
    1res  C14   14   -0.359   0.130  -0.043
    1res  C15   15   -0.588   0.184   0.040
    1res  C16   16   -0.767   0.078   0.123
    1res  C17   17   -0.836   0.378   0.115
    1res  C18   18   -1.013   0.039   0.221
    1res  C19   19   -0.578  -0.088   0.063
    1res  C20   20   -0.634  -0.328   0.110
    1res  C21   21   -0.252  -0.200  -0.335
  10.00000  10.00000  10.00000
