[ moleculetype ]
; name        nrexcl
res           1

[ atoms ]
;    nr  type  resnr resid  atom  cgnr     charge       mass
      1 P1        1 res   C1        1      0.000     72.000
      2 TC5       1 res   C2        2      0.000     36.000
      3 TC5       1 res   C3        3      0.000     36.000
      4 TN2a      1 res   C4        4      0.000     36.000
      5 SN4a      1 res   C5        5      0.000     54.000
      6 TP1       1 res   C6        6      0.000     36.000
      7 TN6       1 res   C7        7      0.000     36.000
      8 TN6       1 res   C8        8      0.000     36.000
      9 TN6       1 res   C9        9      0.000     36.000
     10 TC5       1 res   C10      10      0.000     36.000

[ bonds ]
;  ai    aj   funct      b0(nm)          k(kJ/mol/nm^2)
    1     2     1      0.25387          41480.9
    2     3     1      0.22129         212898.1
    2    10     1      0.29739         208306.7
    3     4     1      0.23685          44577.2
    3    10     1      0.29695         219291.4
    4     5     1      0.32085           2861.5
    5     6     1      0.28614          36184.7
    5     7     1      0.25334           2235.1
    5     9     1      0.28812           6634.8
    7     8     1      0.27336          15142.4
    8     9     1      0.22380          14012.7

[ angles ]
;  ai    aj    ak  funct     th0(deg)        k(kJ/mol/rad^2)
    1     2     3     1    159.16652           664.95
    1     2    10     1     92.39796          1011.14
    2     3     4     1    153.17458          1008.29
    2     3    10     1     68.24907          6140.90
    2    10     3     1     43.71452         13397.25
    3     2    10     1     68.03639          6764.27
    3     4     5     1     88.11287             9.35
    4     3    10     1     85.51165          1258.06
    4     5     6     1    112.57828            84.20
    4     5     7     1    131.73911            20.46
    4     5     9     1     59.86639            92.18
    5     7     8     1     72.39470           391.63
    5     9     8     1     73.71653           168.15
    6     5     7     1     73.93752            53.51
    6     5     9     1    111.45129            15.00
    7     5     9     1     91.78477           208.38
    7     8     9     1    103.10842           196.67
