[ moleculetype ]
; name        nrexcl
res           1

[ atoms ]
;    nr  type  resnr resid  atom  cgnr     charge       mass
      1 SC4       1 res   C1        1      0.000     54.000
      2 TP1       1 res   C2        2      0.000     36.000
      3 TC3       1 res   C3        3      0.000     36.000
      4 TN6d      1 res   C4        4      0.000     36.000
      5 TC5       1 res   C5        5      0.000     36.000
      6 TN6d      1 res   C6        6      0.000     36.000
      7 TC5       1 res   C7        7      0.000     36.000
      8 TC5       1 res   C8        8      0.000     36.000
      9 TC5       1 res   C9        9      0.000     36.000
     10 TC3       1 res   C10      10      0.000     36.000
     11 SN6a      1 res   C11      11      0.000     54.000
     12 TP1       1 res   C12      12      0.000     36.000

[ constraints ]
;  ai    aj   funct      b0(nm)
   11    12     1      0.21128
    4     5     1      0.21708
    5    10     1      0.24607
    3    11     1      0.28915
    5     7     1      0.18360
    7     9     1      0.25026
    4    11     1      0.27628
    3     4     1      0.24418
    7     8     1      0.24983
    5     6     1      0.21833
    4    10     1      0.27404
    6     7     1      0.21802
    8     9     1      0.29141

[ bonds ]
;  ai    aj   funct      b0(nm)          k(kJ/mol/nm^2)
    1     2     1      0.28574          13642.1
    1     3     1      0.38813           9829.2

[ angles ]
;  ai    aj    ak  funct     th0(deg)        k(kJ/mol/rad^2)
    1     3     4     1     73.37400            64.95
    1     3    11     1     79.74589            60.14
    2     1     3     1     60.81998           172.10
    3     4     5     1    109.07873           456.81
    3     4    10     1    138.59979            73.45
    3     4    11     1     67.19808          1517.55
    3    11     4     1     51.08964          2767.41
    3    11    12     1    105.54746           672.94
    4     3    11     1     61.71209          1653.21
    4     5     6     1     93.59317           703.34
    4     5     7     1    157.05233           437.16
    4     5    10     1     72.24206           960.20
    4    10     5     1     48.93311          5951.01
    4    11    12     1    127.62360            14.42
    5     4    10     1     58.82455          1129.69
    5     4    11     1    120.93167            20.32
    5     6     7     1     49.76260          6750.67
    5     7     6     1     65.20222          4674.80
    5     7     8     1    160.88438          1588.98
    5     7     9     1    126.56239          1883.66
    6     5     7     1     65.03515          3911.42
    6     5    10     1    162.54701           364.21
    6     7     8     1     96.57103          1827.48
    6     7     9     1    166.24348          1030.72
    7     5    10     1    128.09092          1200.39
    7     8     9     1     54.42083         14550.78
    7     9     8     1     54.29047          9573.33
    8     7     9     1     71.28870          6738.82
   10     4    11     1     88.52615           207.32

[ dihedrals ]
;  ai    aj    ak    al  funct   phi0(deg)        k(kJ/mol)   mult
    1     3     4     5     1    -22.22702       29.226      1
    1     3     4    10     1     38.34694       29.750      1
    1     3     4    11     1     90.81137       14.384      1
    1     3    11     4     1   -104.05785       13.620      1
    1     3    11    12     1    135.47388       22.534      1
    2     1     3     4     1      1.53287       26.282      1
    2     1     3    11     1    -61.45713       26.426      1
    3     4     5     6     1    135.31268       21.085      1
    3     4     5     7     1    125.95412       27.161      1
    3     4     5    10     1    -46.56701       19.728      1
    3     4    10     5     1     96.65851       13.621      1
    3     4    11    12     1   -109.59648       25.994      1
    3    11     4     5     1    -79.84096       12.166      1
    3    11     4    10     1    -32.69173       21.545      1
    4     3    11    12     1     53.81375       26.556      1
    4     5     6     7     1      7.69613       13.570      1
    4     5     7     6     1   -167.18313       23.362      1
    4     5     7     8     1   -165.92703       28.883      1
    4     5     7     9     1     13.74187       24.710      1
    4    10     5     6     1   -175.11004       30.413      1
    4    10     5     7     1      9.19210       17.078      1
    5     4     3    11     1     67.05776       25.617      1
    5     4    11    12     1     -2.24748       27.826      1
    5     6     7     8     1     -0.93284       11.493      1
    5     6     7     9     1     -2.91237       29.134      1
    5     7     8     9     1     -1.29041       25.160      1
    5     7     9     8     1     -0.31364       13.623      1
    5    10     4    11     1     52.13102       28.917      1
    6     5     4    10     1      0.02597       19.000      1
    6     5     4    11     1     59.54359       22.710      1
    6     5     7     8     1   -179.62468       23.796      1
    6     5     7     9     1      1.03063       15.733      1
    6     7     5    10     1     -2.85358       22.140      1
    6     7     8     9     1      0.71092       12.900      1
    6     7     9     8     1    178.94617       29.654      1
    7     5     4    10     1     -9.69209       28.283      1
    7     5     4    11     1     51.07047       30.190      1
    7     6     5    10     1      2.13120       30.053      1
    8     7     5    10     1     -4.22316       24.426      1
    9     7     5    10     1    178.91301       22.329      1
   10     4     3    11     1    130.99069       25.425      1
   10     4    11    12     1     39.31939       20.213      1
   10     5     4    11     1   -124.54231       23.291      1
