[ moleculetype ]
; name        nrexcl
res           1

[ atoms ]
;    nr  type  resnr resid  atom  cgnr     charge       mass
      1 TC3       1 res   C1        1      0.000     36.000
      2 TC3       1 res   C2        2      0.000     36.000
      3 TC3       1 res   C3        3      0.000     36.000
      4 TN6d      1 res   C4        4      0.000     36.000
      5 TC3       1 res   C5        5      0.000     36.000
      6 TC5       1 res   C6        6      0.000     36.000
      7 TN6d      1 res   C7        7      0.000     36.000
      8 TC5       1 res   C8        8      0.000     36.000
      9 TC5       1 res   C9        9      0.000     36.000
     10 TC5       1 res   C10      10      0.000     36.000
     11 TC5       1 res   C11      11      0.000     36.000
     12 N4a       1 res   C12      12      0.000     72.000

[ constraints ]
;  ai    aj   funct      b0(nm)
    1     2     1      0.25369
    2     3     1      0.27986
   11    12     1      0.36972
    4     5     1      0.26730
    3    11     1      0.29060
    4    11     1      0.28679
    6     8     1      0.18456
    3     4     1      0.25588
    7     8     1      0.21775
    5     6     1      0.25263
    6    11     1      0.24260
    8    10     1      0.25004
    6     7     1      0.21722
    2    11     1      0.27001
    9    10     1      0.29136
    8     9     1      0.25000

[ bonds ]
;  ai    aj   funct      b0(nm)          k(kJ/mol/nm^2)

[ angles ]
;  ai    aj    ak  funct     th0(deg)        k(kJ/mol/rad^2)
    1     2     3     1    136.74385           338.35
    1     2    11     1     89.12038           988.30
    2     3     4     1     63.98960          1904.35
    2     3    11     1     56.45881          4645.39
    2    11     3     1     59.75712          4935.69
    2    11     4     1     61.38836          2188.18
    2    11     6     1    138.98910          1268.46
    2    11    12     1     80.71054           698.65
    3     2    11     1     63.78397          4343.24
    3     4     5     1    100.35528           548.23
    3     4    11     1     64.46192          5734.38
    3    11     4     1     52.60798          4687.24
    3    11     6     1     79.64584          1453.67
    3    11    12     1     75.14967          1202.40
    4     3    11     1     62.93005          5718.73
    4     5     6     1     93.44422          1123.98
    4    11     6     1     90.93452          1175.19
    4    11    12     1    125.30871          1060.94
    5     4    11     1     69.90017          2397.67
    5     6     7     1    162.97184           267.63
    5     6     8     1    117.25373          1519.05
    5     6    11     1     79.81652          2091.03
    6     7     8     1     50.20939          6930.95
    6     8     7     1     64.74349          3378.27
    6     8     9     1    160.77097          1406.19
    6     8    10     1    126.98556          2012.11
    6    11    12     1     94.55192           989.16
    7     6     8     1     65.04705          3258.05
    7     6    11     1     89.59054           672.01
    7     8     9     1     96.66484          1622.50
    7     8    10     1    166.72061          1590.24
    8     6    11     1    143.74692           347.48
    8     9    10     1     54.36799          9299.86
    8    10     9     1     54.35485         10857.57
    9     8    10     1     71.27717          7246.15

[ dihedrals ]
;  ai    aj    ak    al  funct   phi0(deg)        k(kJ/mol)   mult
    1     2     3     4     1    -51.89132       12.191      1
    1     2     3    11     1   -125.87983       12.210      1
    1     2    11     3     1     35.11817       10.057      1
    1     2    11     4     1    -26.04261       10.786      1
    1     2    11     6     1     26.00944       10.776      1
    1     2    11    12     1    112.99176       10.051      1
    2     3     4     5     1     54.94874        7.041      1
    2     3     4    11     1    115.09710        3.984      1
    2     3    11     4     1   -104.95136        5.531      1
    2     3    11     6     1     -5.02235        5.569      1
    2     3    11    12     1     92.91635        7.057      1
    2    11     3     4     1    104.95136        5.531      1
    2    11     4     3     1   -106.11785        4.740      1
    2    11     4     5     1      6.29171        7.823      1
    2    11     6     5     1     99.91515        9.262      1
    2    11     6     7     1    -68.34637       12.174      1
    2    11     6     8     1    -25.71861       14.943      1
    3     2    11     4     1    118.05664        4.747      1
    3     2    11     6     1    171.08534        8.541      1
    3     2    11    12     1   -102.23331        6.259      1
    3     4     5     6     1   -157.03229        8.536      1
    3     4    11     6     1    102.14134        6.269      1
    3     4    11    12     1   -160.94875        8.533      1
    3    11     4     5     1    -66.05014        9.274      1
    3    11     6     5     1     91.03858        7.049      1
    3    11     6     7     1    -74.98949       11.498      1
    3    11     6     8     1    -34.20160       13.625      1
    4     3     2    11     1   -105.11294        3.977      1
    4     3    11     6     1    -81.90962        6.310      1
    4     3    11    12     1     16.06546        7.804      1
    4     5     6     7     1    -92.87992       17.581      1
    4     5     6     8     1      6.15447       13.652      1
    4     5     6    11     1   -139.06453        7.026      1
    4    11     6     5     1    143.00605        7.015      1
    4    11     6     7     1    -22.07905       12.167      1
    4    11     6     8     1     19.32721       13.554      1
    5     4     3    11     1    118.05162        6.289      1
    5     4    11     6     1   -143.04865        7.029      1
    5     4    11    12     1    -47.00482        8.548      1
    5     6     7     8     1    -72.17804       16.166      1
    5     6     8     7     1     19.01565       12.883      1
    5     6     8     9     1     18.75346       22.735      1
    5     6     8    10     1   -161.92481       13.661      1
    5     6    11    12     1     17.94450        7.801      1
    6     5     4    11     1    145.01574        5.562      1
    6     7     8     9     1      0.52908       10.686      1
    6     7     8    10     1      4.43085       29.479      1
    6     8     9    10     1     -1.78960       22.584      1
    6     8    10     9     1      2.88561       14.252      1
    7     6     8     9     1    178.91632       21.949      1
    7     6     8    10     1     -2.33087       12.201      1
    7     6    11    12     1   -148.89815       11.503      1
    7     8     6    11     1    131.94517       12.216      1
    7     8     9    10     1     -2.23096       10.737      1
    7     8    10     9     1    174.17075       27.010      1
    8     6    11    12     1   -106.67094       12.219      1
    8     7     6    11     1    -26.05770       10.740      1
    9     8     6    11     1    130.72163       23.167      1
   10     8     6    11     1    -51.91610       16.413      1
