1TPCN00170
12
    1res  C1    1    0.324   0.335  -0.115
    1res  C2    2    0.242   0.147  -0.005
    1res  C3    3    0.082  -0.019  -0.009
    1res  C4    4   -0.062  -0.187   0.003
    1res  C5    5   -0.271  -0.369  -0.060
    1res  C6    6   -0.258  -0.127   0.006
    1res  C7    7   -0.462   0.011   0.070
    1res  C8    8   -0.201   0.093   0.132
    1res  C9    9   -0.212   0.205  -0.099
    1res  C10   10    0.253  -0.194  -0.037
    1res  C11   11    0.412  -0.104   0.132
    1res  C12   12    0.488   0.074   0.025
  10.00000  10.00000  10.00000
