[ moleculetype ]
; name        nrexcl
res           1

[ atoms ]
;    nr  type  resnr resid  atom  cgnr     charge       mass
      1 TN6a      1 res   C1        1      0.000     36.000
      2 TC5       1 res   C2        2      0.000     36.000
      3 TC5       1 res   C3        3      0.000     36.000
      4 TN6a      1 res   C4        4      0.000     36.000
      5 TC6       1 res   C5        5      0.000     36.000

[ constraints ]
;  ai    aj   funct      b0(nm)
    1     2     1      0.27061
    2     3     1      0.29226
    1     5     1      0.19509
    4     5     1      0.19518
    1     4     1      0.19678
    3     4     1      0.27104

[ bonds ]
;  ai    aj   funct      b0(nm)          k(kJ/mol/nm^2)

[ angles ]
;  ai    aj    ak  funct     th0(deg)        k(kJ/mol/rad^2)
    1     2     3     1     79.85158          8341.73
    1     4     3     1    100.05293          2459.40
    1     4     5     1     59.70076          7678.96
    1     5     4     1     60.55313         11892.12
    2     1     4     1    100.16357          2953.52
    2     1     5     1    159.78448          2034.53
    2     3     4     1     79.76039          7575.92
    3     4     5     1    159.65438          1897.53
    4     1     5     1     59.74611          7579.93

[ dihedrals ]
;  ai    aj    ak    al  funct   phi0(deg)        k(kJ/mol)   mult
    1     2     3     4     1   -179.07184        5.517      1
    1     4     3     2     1    179.77084        6.335      1
    1     5     4     3     1    179.97946       10.812      1
    2     1     4     3     1   -179.07210        7.064      1
    2     1     4     5     1     -0.00291        6.230      1
    2     1     5     4     1    179.79994       13.564      1
    2     3     4     5     1   -179.09130       14.363      1
    3     2     1     4     1    179.77233        6.334      1
    3     2     1     5     1    179.93486       16.374      1
    3     4     1     5     1      0.00233        4.766      1
