[ moleculetype ]
; name        nrexcl
res           1

[ atoms ]
;    nr  type  resnr resid  atom  cgnr     charge       mass
      1 TN6a      1 res   C1        1      0.000     36.000
      2 TC5       1 res   C2        2      0.000     36.000
      3 TC5       1 res   C3        3      0.000     36.000
      4 TN6a      1 res   C4        4      0.000     36.000
      5 TC6       1 res   C5        5      0.000     36.000

[ constraints ]
;  ai    aj   funct      b0(nm)
    1     2     1      0.27034
    2     3     1      0.29257
    1     5     1      0.19488
    4     5     1      0.19502
    1     4     1      0.19676
    3     4     1      0.27175

[ bonds ]
;  ai    aj   funct      b0(nm)          k(kJ/mol/nm^2)

[ angles ]
;  ai    aj    ak  funct     th0(deg)        k(kJ/mol/rad^2)
    1     2     3     1     79.70788          8888.67
    1     4     3     1     99.61200          7136.72
    1     4     5     1     59.65676         12451.50
    1     5     4     1     60.61742          9734.90
    2     1     4     1    100.00281          6253.76
    2     1     5     1    159.13770          3592.35
    2     3     4     1     79.42979          9978.00
    3     4     5     1    158.58769          3975.36
    4     1     5     1     59.72583         11531.89

[ dihedrals ]
;  ai    aj    ak    al  funct   phi0(deg)        k(kJ/mol)   mult
    1     2     3     4     1    179.98756        9.352      1
    1     4     3     2     1    179.91011       12.269      1
    1     5     4     3     1    179.02769       21.177      1
    2     1     4     3     1    179.98013       13.689      1
    2     1     4     5     1      0.89714       10.053      1
    2     1     5     4     1    177.72423       21.598      1
    2     3     4     5     1   -178.21698       24.406      1
    3     2     1     4     1    179.91828       12.280      1
    3     2     1     5     1    178.58537       26.428      1
    3     4     1     5     1     -0.00665        9.374      1
