1TPCN02115
7
    1res  C1    1   -0.291   0.278   0.042
    1res  C2    2   -0.259  -0.066   0.064
    1res  C3    3   -0.072   0.143  -0.056
    1res  C4    4    0.137  -0.114   0.019
    1res  C5    5    0.299   0.091  -0.001
    1res  C6    6    0.035  -0.318   0.026
    1res  C7    7   -0.165  -0.265  -0.068
  10.00000  10.00000  10.00000
