[ moleculetype ]
; name        nrexcl
res           1

[ atoms ]
;    nr  type  resnr resid  atom  cgnr     charge       mass
      1 TC5       1 res   C1        1      0.000     36.000
      2 TC6       1 res   C2        2      0.000     36.000
      3 TC5       1 res   C3        3      0.000     36.000
      4 SP3       1 res   C4        4      0.000     54.000

[ constraints ]
;  ai    aj   funct      b0(nm)
    1     2     1      0.24257
    1     3     1      0.25126
    2     3     1      0.25675
    3     4     1      0.37714

[ bonds ]
;  ai    aj   funct      b0(nm)          k(kJ/mol/nm^2)

[ angles ]
;  ai    aj    ak  funct     th0(deg)        k(kJ/mol/rad^2)
    1     2     3     1     60.34996          5127.31
    1     3     2     1     57.02592          7125.49
    1     3     4     1    129.66360          1213.94
    2     1     3     1     62.62409          5487.32
    2     3     4     1     72.92809          1086.07

[ dihedrals ]
;  ai    aj    ak    al  funct   phi0(deg)        k(kJ/mol)   mult
    1     2     3     4     1     -0.01997       10.764      1
    2     1     3     4     1    179.06745       12.944      1
