162182-10-9
6
    1res  C1    1    0.078  -0.075   0.012
    1res  C2    2   -0.077  -0.171  -0.081
    1res  C3    3   -0.183  -0.061   0.105
    1res  C4    4   -0.172   0.131   0.022
    1res  C5    5    0.039   0.165   0.009
    1res  C6    6    0.287  -0.049   0.013
  10.00000  10.00000  10.00000
