Generated with MDTraj, t= 0.0
 55
    1UNL     C1    1  -0.644   0.074   0.065
    1UNL     C2    2  -0.571  -0.055   0.027
    1UNL     C3    3  -0.547  -0.061  -0.124
    1UNL     C4    4  -0.442  -0.076   0.111
    1UNL     C5    5  -0.380  -0.210   0.086
    1UNL     C6    6  -0.269  -0.229   0.017
    1UNL     C7    7  -0.190  -0.121  -0.052
    1UNL     C8    8  -0.185  -0.148  -0.203
    1UNL     O1    9  -0.052  -0.121  -0.004
    1UNL     C9   10  -0.010   0.010   0.012
    1UNL    C10   11   0.121   0.055   0.038
    1UNL    C11   12   0.229  -0.043   0.050
    1UNL     O2   13   0.206  -0.163   0.061
    1UNL    C12   14   0.368  -0.000   0.046
    1UNL    C13   15   0.468  -0.089   0.043
    1UNL    C14   16   0.610  -0.057   0.035
    1UNL    C15   17   0.703  -0.160   0.034
    1UNL    C16   18   0.838  -0.133   0.026
    1UNL    C17   19   0.882  -0.003   0.017
    1UNL    C18   20   0.791   0.101   0.018
    1UNL    C19   21   0.656   0.074   0.027
    1UNL    C20   22   0.142   0.195   0.048
    1UNL     O3   23   0.267   0.248   0.074
    1UNL    C21   24   0.035   0.283   0.032
    1UNL    C22   25  -0.095   0.239   0.006
    1UNL     O4   26  -0.197   0.330  -0.010
    1UNL    C23   27  -0.115   0.101  -0.003
    1UNL    C24   28  -0.242   0.025  -0.025
    1UNL    C25   29  -0.336   0.036   0.098
    1UNL     H1   30  -0.661   0.080   0.172
    1UNL     H2   31  -0.741   0.081   0.015
    1UNL     H3   32  -0.587   0.162   0.035
    1UNL     H4   33  -0.638  -0.139   0.052
    1UNL     H5   34  -0.641  -0.059  -0.179
    1UNL     H6   35  -0.494  -0.152  -0.152
    1UNL     H7   36  -0.489   0.025  -0.158
    1UNL     H8   37  -0.474  -0.075   0.217
    1UNL     H9   38  -0.429  -0.296   0.130
    1UNL    H10   39  -0.229  -0.329   0.008
    1UNL    H11   40  -0.285  -0.147  -0.247
    1UNL    H12   41  -0.125  -0.072  -0.253
    1UNL    H13   42  -0.139  -0.244  -0.223
    1UNL    H14   43   0.389   0.104   0.045
    1UNL    H15   44   0.441  -0.193   0.045
    1UNL    H16   45   0.669  -0.262   0.040
    1UNL    H17   46   0.909  -0.214   0.025
    1UNL    H18   47   0.988   0.018   0.010
    1UNL    H19   48   0.825   0.202   0.012
    1UNL    H20   49   0.586   0.156   0.028
    1UNL    H21   50   0.261   0.346   0.080
    1UNL    H22   51   0.051   0.389   0.040
    1UNL    H23   52  -0.280   0.283  -0.033
    1UNL    H24   53  -0.292   0.063  -0.115
    1UNL    H25   54  -0.384   0.134   0.098
    1UNL    H26   55  -0.272   0.036   0.187
   0.00000   0.00000   0.00000   0.00000   0.00000   0.00000   0.00000   0.00000   0.00000
Generated with MDTraj, t= 1.0
 55
    1UNL     C1    1  -0.614   0.094   0.040
    1UNL     C2    2  -0.570  -0.057   0.035
    1UNL     C3    3  -0.569  -0.107  -0.103
    1UNL     C4    4  -0.431  -0.080   0.115
    1UNL     C5    5  -0.372  -0.214   0.077
    1UNL     C6    6  -0.271  -0.226  -0.006
    1UNL     C7    7  -0.194  -0.111  -0.056
    1UNL     C8    8  -0.175  -0.126  -0.209
    1UNL     O1    9  -0.050  -0.120  -0.003
    1UNL     C9   10  -0.012   0.013   0.008
    1UNL    C10   11   0.119   0.056   0.040
    1UNL    C11   12   0.224  -0.042   0.060
    1UNL     O2   13   0.204  -0.160   0.083
    1UNL    C12   14   0.367   0.004   0.049
    1UNL    C13   15   0.466  -0.085   0.057
    1UNL    C14   16   0.605  -0.060   0.041
    1UNL    C15   17   0.692  -0.165   0.017
    1UNL    C16   18   0.824  -0.135  -0.014
    1UNL    C17   19   0.872  -0.005   0.004
    1UNL    C18   20   0.786   0.098   0.026
    1UNL    C19   21   0.651   0.070   0.050
    1UNL    C20   22   0.136   0.199   0.060
    1UNL     O3   23   0.265   0.243   0.108
    1UNL    C21   24   0.035   0.283   0.021
    1UNL    C22   25  -0.093   0.240  -0.010
    1UNL     O4   26  -0.190   0.334  -0.031
    1UNL    C23   27  -0.115   0.104  -0.013
    1UNL    C24   28  -0.245   0.028  -0.021
    1UNL    C25   29  -0.321   0.032   0.114
    1UNL     H1   30  -0.597   0.128   0.143
    1UNL     H2   31  -0.722   0.098   0.021
    1UNL     H3   32  -0.552   0.152  -0.024
    1UNL     H4   33  -0.652  -0.103   0.092
    1UNL     H5   34  -0.533  -0.215  -0.106
    1UNL     H6   35  -0.508  -0.049  -0.166
    1UNL     H7   36  -0.668  -0.102  -0.145
    1UNL     H8   37  -0.453  -0.083   0.223
    1UNL     H9   38  -0.415  -0.307   0.110
    1UNL    H10   39  -0.217  -0.320  -0.015
    1UNL    H11   40  -0.260  -0.146  -0.266
    1UNL    H12   41  -0.122  -0.048  -0.257
    1UNL    H13   42  -0.105  -0.215  -0.222
    1UNL    H14   43   0.402   0.112   0.058
    1UNL    H15   44   0.431  -0.187   0.049
    1UNL    H16   45   0.664  -0.267   0.045
    1UNL    H17   46   0.888  -0.220  -0.038
    1UNL    H18   47   0.973   0.040   0.009
    1UNL    H19   48   0.830   0.197   0.039
    1UNL    H20   49   0.587   0.151   0.083
    1UNL    H21   50   0.283   0.330   0.075
    1UNL    H22   51   0.052   0.391   0.023
    1UNL    H23   52  -0.267   0.301  -0.082
    1UNL    H24   53  -0.304   0.064  -0.097
    1UNL    H25   54  -0.358   0.131   0.122
    1UNL    H26   55  -0.249   0.023   0.199
   0.00000   0.00000   0.00000   0.00000   0.00000   0.00000   0.00000   0.00000   0.00000
Generated with MDTraj, t= 2.0
 55
    1UNL     C1    1  -0.602   0.105   0.042
    1UNL     C2    2  -0.558  -0.047   0.036
    1UNL     C3    3  -0.564  -0.103  -0.114
    1UNL     C4    4  -0.426  -0.083   0.113
    1UNL     C5    5  -0.374  -0.215   0.082
    1UNL     C6    6  -0.263  -0.232   0.010
    1UNL     C7    7  -0.181  -0.120  -0.063
    1UNL     C8    8  -0.180  -0.149  -0.219
    1UNL     O1    9  -0.048  -0.114  -0.020
    1UNL     C9   10  -0.008   0.014   0.007
    1UNL    C10   11   0.114   0.061   0.057
    1UNL    C11   12   0.217  -0.038   0.077
    1UNL     O2   13   0.195  -0.155   0.109
    1UNL    C12   14   0.359  -0.001   0.080
    1UNL    C13   15   0.458  -0.093   0.061
    1UNL    C14   16   0.601  -0.058   0.037
    1UNL    C15   17   0.686  -0.161  -0.009
    1UNL    C16   18   0.824  -0.132  -0.032
    1UNL    C17   19   0.877  -0.007  -0.003
    1UNL    C18   20   0.790   0.088   0.050
    1UNL    C19   21   0.657   0.066   0.054
    1UNL    C20   22   0.131   0.203   0.061
    1UNL     O3   23   0.259   0.250   0.091
    1UNL    C21   24   0.026   0.288   0.040
    1UNL    C22   25  -0.095   0.244  -0.004
    1UNL     O4   26  -0.198   0.334  -0.032
    1UNL    C23   27  -0.111   0.106  -0.018
    1UNL    C24   28  -0.238   0.024  -0.034
    1UNL    C25   29  -0.314   0.026   0.103
    1UNL     H1   30  -0.590   0.148   0.145
    1UNL     H2   31  -0.708   0.098   0.023
    1UNL     H3   32  -0.544   0.161  -0.027
    1UNL     H4   33  -0.630  -0.092   0.103
    1UNL     H5   34  -0.485  -0.040  -0.169
    1UNL     H6   35  -0.654  -0.090  -0.166
    1UNL     H7   36  -0.542  -0.209  -0.116
    1UNL     H8   37  -0.444  -0.078   0.222
    1UNL     H9   38  -0.427  -0.302   0.123
    1UNL    H10   39  -0.241  -0.332  -0.020
    1UNL    H11   40  -0.268  -0.112  -0.261
    1UNL    H12   41  -0.103  -0.099  -0.271
    1UNL    H13   42  -0.165  -0.254  -0.260
    1UNL    H14   43   0.390   0.097   0.080
    1UNL    H15   44   0.425  -0.193   0.039
    1UNL    H16   45   0.651  -0.261  -0.024
    1UNL    H17   46   0.895  -0.202  -0.072
    1UNL    H18   47   0.967   0.020  -0.050
    1UNL    H19   48   0.809   0.195   0.057
    1UNL    H20   49   0.591   0.149   0.076
    1UNL    H21   50   0.290   0.328   0.041
    1UNL    H22   51   0.035   0.393   0.044
    1UNL    H23   52  -0.270   0.292  -0.084
    1UNL    H24   53  -0.300   0.054  -0.109
    1UNL    H25   54  -0.353   0.121   0.130
    1UNL    H26   55  -0.227   0.023   0.177
   0.00000   0.00000   0.00000   0.00000   0.00000   0.00000   0.00000   0.00000   0.00000
Generated with MDTraj, t= 3.0
 55
    1UNL     C1    1  -0.638   0.073   0.052
    1UNL     C2    2  -0.569  -0.048   0.020
    1UNL     C3    3  -0.533  -0.058  -0.129
    1UNL     C4    4  -0.436  -0.071   0.108
    1UNL     C5    5  -0.377  -0.207   0.091
    1UNL     C6    6  -0.268  -0.232   0.018
    1UNL     C7    7  -0.182  -0.128  -0.052
    1UNL     C8    8  -0.168  -0.160  -0.209
    1UNL     O1    9  -0.045  -0.119  -0.006
    1UNL     C9   10  -0.002   0.011   0.004
    1UNL    C10   11   0.121   0.060   0.047
    1UNL    C11   12   0.226  -0.032   0.077
    1UNL     O2   13   0.201  -0.145   0.120
    1UNL    C12   14   0.365   0.003   0.052
    1UNL    C13   15   0.460  -0.093   0.060
    1UNL    C14   16   0.601  -0.058   0.037
    1UNL    C15   17   0.685  -0.160  -0.019
    1UNL    C16   18   0.817  -0.133  -0.051
    1UNL    C17   19   0.868  -0.009  -0.003
    1UNL    C18   20   0.790   0.084   0.063
    1UNL    C19   21   0.654   0.063   0.072
    1UNL    C20   22   0.140   0.197   0.050
    1UNL     O3   23   0.257   0.247   0.097
    1UNL    C21   24   0.033   0.284   0.010
    1UNL    C22   25  -0.100   0.243  -0.003
    1UNL     O4   26  -0.208   0.329  -0.012
    1UNL    C23   27  -0.109   0.103  -0.023
    1UNL    C24   28  -0.230   0.021  -0.032
    1UNL    C25   29  -0.316   0.037   0.098
    1UNL     H1   30  -0.648   0.092   0.161
    1UNL     H2   31  -0.741   0.069   0.021
    1UNL     H3   32  -0.584   0.157   0.014
    1UNL     H4   33  -0.632  -0.129   0.051
    1UNL     H5   34  -0.576   0.034  -0.179
    1UNL     H6   35  -0.572  -0.147  -0.175
    1UNL     H7   36  -0.427  -0.074  -0.137
    1UNL     H8   37  -0.454  -0.064   0.216
    1UNL     H9   38  -0.427  -0.286   0.141
    1UNL    H10   39  -0.236  -0.335   0.013
    1UNL    H11   40  -0.259  -0.211  -0.241
    1UNL    H12   41  -0.157  -0.073  -0.271
    1UNL    H13   42  -0.084  -0.218  -0.242
    1UNL    H14   43   0.383   0.095  -0.003
    1UNL    H15   44   0.433  -0.196   0.064
    1UNL    H16   45   0.647  -0.262  -0.033
    1UNL    H17   46   0.886  -0.204  -0.095
    1UNL    H18   47   0.965   0.026  -0.046
    1UNL    H19   48   0.829   0.183   0.080
    1UNL    H20   49   0.579   0.133   0.106
    1UNL    H21   50   0.272   0.341   0.063
    1UNL    H22   51   0.052   0.390   0.023
    1UNL    H23   52  -0.295   0.282  -0.008
    1UNL    H24   53  -0.288   0.058  -0.117
    1UNL    H25   54  -0.337   0.139   0.117
    1UNL    H26   55  -0.252   0.022   0.194
   0.00000   0.00000   0.00000   0.00000   0.00000   0.00000   0.00000   0.00000   0.00000
Generated with MDTraj, t= 4.0
 55
    1UNL     C1    1  -0.686   0.038   0.062
    1UNL     C2    2  -0.579  -0.062   0.008
    1UNL     C3    3  -0.549  -0.046  -0.143
    1UNL     C4    4  -0.451  -0.080   0.101
    1UNL     C5    5  -0.384  -0.209   0.087
    1UNL     C6    6  -0.266  -0.224   0.024
    1UNL     C7    7  -0.183  -0.117  -0.040
    1UNL     C8    8  -0.171  -0.152  -0.199
    1UNL     O1    9  -0.040  -0.118   0.013
    1UNL     C9   10  -0.014   0.015   0.035
    1UNL    C10   11   0.116   0.061   0.068
    1UNL    C11   12   0.232  -0.034   0.077
    1UNL     O2   13   0.209  -0.151   0.098
    1UNL    C12   14   0.371  -0.000   0.060
    1UNL    C13   15   0.467  -0.095   0.054
    1UNL    C14   16   0.608  -0.062   0.032
    1UNL    C15   17   0.697  -0.155  -0.025
    1UNL    C16   18   0.824  -0.129  -0.052
    1UNL    C17   19   0.885  -0.008  -0.006
    1UNL    C18   20   0.803   0.086   0.056
    1UNL    C19   21   0.666   0.058   0.078
    1UNL    C20   22   0.146   0.202   0.056
    1UNL     O3   23   0.270   0.251   0.062
    1UNL    C21   24   0.037   0.288   0.036
    1UNL    C22   25  -0.089   0.241  -0.001
    1UNL     O4   26  -0.182   0.330  -0.044
    1UNL    C23   27  -0.115   0.104   0.003
    1UNL    C24   28  -0.237   0.029  -0.023
    1UNL    C25   29  -0.347   0.040   0.085
    1UNL     H1   30  -0.725   0.027   0.164
    1UNL     H2   31  -0.780   0.045   0.011
    1UNL     H3   32  -0.646   0.140   0.066
    1UNL     H4   33  -0.628  -0.154   0.022
    1UNL     H5   34  -0.461   0.011  -0.156
    1UNL     H6   35  -0.618   0.037  -0.172
    1UNL     H7   36  -0.572  -0.128  -0.210
    1UNL     H8   37  -0.481  -0.072   0.207
    1UNL     H9   38  -0.445  -0.295   0.122
    1UNL    H10   39  -0.218  -0.318   0.038
    1UNL    H11   40  -0.260  -0.129  -0.262
    1UNL    H12   41  -0.076  -0.116  -0.236
    1UNL    H13   42  -0.156  -0.251  -0.200
    1UNL    H14   43   0.396   0.107   0.040
    1UNL    H15   44   0.437  -0.198   0.029
    1UNL    H16   45   0.680  -0.261  -0.016
    1UNL    H17   46   0.883  -0.210  -0.090
    1UNL    H18   47   0.987   0.009   0.010
    1UNL    H19   48   0.847   0.177   0.097
    1UNL    H20   49   0.595   0.123   0.127
    1UNL    H21   50   0.271   0.345   0.020
    1UNL    H22   51   0.060   0.393   0.033
    1UNL    H23   52  -0.271   0.287  -0.044
    1UNL    H24   53  -0.282   0.060  -0.127
    1UNL    H25   54  -0.410   0.127   0.079
    1UNL    H26   55  -0.299   0.071   0.187
   0.00000   0.00000   0.00000   0.00000   0.00000   0.00000   0.00000   0.00000   0.00000
Generated with MDTraj, t= 5.0
 55
    1UNL     C1    1  -0.686   0.035   0.068
    1UNL     C2    2  -0.590  -0.064   0.008
    1UNL     C3    3  -0.563  -0.039  -0.140
    1UNL     C4    4  -0.456  -0.079   0.095
    1UNL     C5    5  -0.389  -0.215   0.080
    1UNL     C6    6  -0.265  -0.226   0.028
    1UNL     C7    7  -0.178  -0.118  -0.030
    1UNL     C8    8  -0.145  -0.156  -0.179
    1UNL     O1    9  -0.057  -0.118   0.035
    1UNL     C9   10  -0.015   0.015   0.030
    1UNL    C10   11   0.120   0.057   0.049
    1UNL    C11   12   0.226  -0.041   0.069
    1UNL     O2   13   0.202  -0.160   0.079
    1UNL    C12   14   0.367   0.001   0.068
    1UNL    C13   15   0.471  -0.080   0.044
    1UNL    C14   16   0.616  -0.059   0.033
    1UNL    C15   17   0.698  -0.156  -0.028
    1UNL    C16   18   0.833  -0.130  -0.039
    1UNL    C17   19   0.887  -0.013   0.003
    1UNL    C18   20   0.805   0.092   0.059
    1UNL    C19   21   0.669   0.065   0.070
    1UNL    C20   22   0.153   0.196   0.047
    1UNL     O3   23   0.280   0.251   0.073
    1UNL    C21   24   0.048   0.283   0.013
    1UNL    C22   25  -0.088   0.241  -0.007
    1UNL     O4   26  -0.185   0.338  -0.019
    1UNL    C23   27  -0.116   0.104  -0.002
    1UNL    C24   28  -0.243   0.026  -0.030
    1UNL    C25   29  -0.360   0.052   0.071
    1UNL     H1   30  -0.729   0.009   0.163
    1UNL     H2   31  -0.772   0.046   0.002
    1UNL     H3   32  -0.627   0.129   0.078
    1UNL     H4   33  -0.645  -0.153   0.019
    1UNL     H5   34  -0.463  -0.050  -0.150
    1UNL     H6   35  -0.586   0.065  -0.174
    1UNL     H7   36  -0.616  -0.100  -0.211
    1UNL     H8   37  -0.485  -0.070   0.199
    1UNL     H9   38  -0.422  -0.296   0.138
    1UNL    H10   39  -0.220  -0.327   0.033
    1UNL    H11   40  -0.242  -0.167  -0.228
    1UNL    H12   41  -0.079  -0.080  -0.216
    1UNL    H13   42  -0.086  -0.244  -0.180
    1UNL    H14   43   0.389   0.100   0.084
    1UNL    H15   44   0.445  -0.180   0.019
    1UNL    H16   45   0.658  -0.252  -0.062
    1UNL    H17   46   0.908  -0.204  -0.068
    1UNL    H18   47   0.996   0.001  -0.015
    1UNL    H19   48   0.837   0.192   0.072
    1UNL    H20   49   0.589   0.135   0.079
    1UNL    H21   50   0.275   0.347   0.095
    1UNL    H22   51   0.078   0.384  -0.001
    1UNL    H23   52  -0.274   0.298  -0.006
    1UNL    H24   53  -0.279   0.052  -0.143
    1UNL    H25   54  -0.419   0.134   0.034
    1UNL    H26   55  -0.331   0.100   0.174
   0.00000   0.00000   0.00000   0.00000   0.00000   0.00000   0.00000   0.00000   0.00000
Generated with MDTraj, t= 6.0
 55
    1UNL     C1    1  -0.651   0.081   0.060
    1UNL     C2    2  -0.576  -0.058   0.015
    1UNL     C3    3  -0.546  -0.041  -0.137
    1UNL     C4    4  -0.441  -0.072   0.101
    1UNL     C5    5  -0.383  -0.205   0.093
    1UNL     C6    6  -0.266  -0.229   0.034
    1UNL     C7    7  -0.183  -0.125  -0.041
    1UNL     C8    8  -0.162  -0.154  -0.194
    1UNL     O1    9  -0.046  -0.127   0.020
    1UNL     C9   10  -0.005   0.009   0.027
    1UNL    C10   11   0.122   0.060   0.042
    1UNL    C11   12   0.230  -0.037   0.055
    1UNL     O2   13   0.212  -0.157   0.067
    1UNL    C12   14   0.366   0.001   0.044
    1UNL    C13   15   0.461  -0.095   0.034
    1UNL    C14   16   0.609  -0.060   0.032
    1UNL    C15   17   0.695  -0.158  -0.017
    1UNL    C16   18   0.830  -0.131  -0.015
    1UNL    C17   19   0.877  -0.004   0.011
    1UNL    C18   20   0.787   0.096   0.058
    1UNL    C19   21   0.654   0.066   0.065
    1UNL    C20   22   0.140   0.200   0.056
    1UNL     O3   23   0.265   0.259   0.073
    1UNL    C21   24   0.030   0.284   0.045
    1UNL    C22   25  -0.096   0.231   0.012
    1UNL     O4   26  -0.199   0.311  -0.034
    1UNL    C23   27  -0.111   0.094   0.004
    1UNL    C24   28  -0.235   0.020  -0.030
    1UNL    C25   29  -0.340   0.039   0.086
    1UNL     H1   30  -0.652   0.103   0.164
    1UNL     H2   31  -0.753   0.067   0.026
    1UNL     H3   32  -0.595   0.157   0.001
    1UNL     H4   33  -0.638  -0.139   0.036
    1UNL     H5   34  -0.530  -0.135  -0.183
    1UNL     H6   35  -0.467   0.030  -0.150
    1UNL     H7   36  -0.628   0.010  -0.186
    1UNL     H8   37  -0.477  -0.062   0.204
    1UNL     H9   38  -0.430  -0.298   0.131
    1UNL    H10   39  -0.227  -0.328   0.032
    1UNL    H11   40  -0.262  -0.173  -0.222
    1UNL    H12   41  -0.119  -0.070  -0.241
    1UNL    H13   42  -0.090  -0.239  -0.213
    1UNL    H14   43   0.384   0.099   0.011
    1UNL    H15   44   0.430  -0.194   0.071
    1UNL    H16   45   0.664  -0.253  -0.049
    1UNL    H17   46   0.893  -0.217  -0.030
    1UNL    H18   47   0.978   0.016  -0.010
    1UNL    H19   48   0.818   0.204   0.055
    1UNL    H20   49   0.577   0.143   0.074
    1UNL    H21   50   0.256   0.352   0.093
    1UNL    H22   51   0.024   0.393   0.038
    1UNL    H23   52  -0.261   0.254  -0.085
    1UNL    H24   53  -0.270   0.061  -0.133
    1UNL    H25   54  -0.388   0.136   0.071
    1UNL    H26   55  -0.282   0.061   0.186
   0.00000   0.00000   0.00000   0.00000   0.00000   0.00000   0.00000   0.00000   0.00000
Generated with MDTraj, t= 7.0
 55
    1UNL     C1    1  -0.610   0.108   0.043
    1UNL     C2    2  -0.565  -0.038   0.029
    1UNL     C3    3  -0.545  -0.073  -0.120
    1UNL     C4    4  -0.446  -0.078   0.122
    1UNL     C5    5  -0.392  -0.223   0.102
    1UNL     C6    6  -0.290  -0.240   0.012
    1UNL     C7    7  -0.203  -0.125  -0.057
    1UNL     C8    8  -0.199  -0.155  -0.212
    1UNL     O1    9  -0.066  -0.124   0.002
    1UNL     C9   10  -0.015   0.009   0.007
    1UNL    C10   11   0.119   0.051   0.021
    1UNL    C11   12   0.227  -0.044   0.056
    1UNL     O2   13   0.201  -0.163   0.069
    1UNL    C12   14   0.370  -0.004   0.067
    1UNL    C13   15   0.472  -0.085   0.031
    1UNL    C14   16   0.610  -0.047   0.028
    1UNL    C15   17   0.706  -0.149   0.002
    1UNL    C16   18   0.845  -0.130   0.001
    1UNL    C17   19   0.887   0.002   0.023
    1UNL    C18   20   0.802   0.108   0.037
    1UNL    C19   21   0.662   0.080   0.057
    1UNL    C20   22   0.137   0.187   0.042
    1UNL     O3   23   0.259   0.243   0.095
    1UNL    C21   24   0.034   0.277   0.024
    1UNL    C22   25  -0.094   0.239  -0.013
    1UNL     O4   26  -0.191   0.338  -0.009
    1UNL    C23   27  -0.117   0.101  -0.018
    1UNL    C24   28  -0.244   0.020  -0.025
    1UNL    C25   29  -0.320   0.020   0.112
    1UNL     H1   30  -0.628   0.120   0.147
    1UNL     H2   31  -0.703   0.136  -0.006
    1UNL     H3   32  -0.528   0.178   0.016
    1UNL     H4   33  -0.639  -0.107   0.063
    1UNL     H5   34  -0.519  -0.185  -0.116
    1UNL     H6   35  -0.479  -0.003  -0.165
    1UNL     H7   36  -0.633  -0.065  -0.180
    1UNL     H8   37  -0.491  -0.072   0.220
    1UNL     H9   38  -0.436  -0.310   0.139
    1UNL    H10   39  -0.246  -0.341   0.002
    1UNL    H11   40  -0.286  -0.138  -0.267
    1UNL    H12   41  -0.112  -0.107  -0.245
    1UNL    H13   42  -0.160  -0.262  -0.223
    1UNL    H14   43   0.387   0.109   0.073
    1UNL    H15   44   0.453  -0.190   0.036
    1UNL    H16   45   0.674  -0.256   0.002
    1UNL    H17   46   0.908  -0.217   0.014
    1UNL    H18   47   0.993   0.022   0.053
    1UNL    H19   48   0.845   0.200   0.056
    1UNL    H20   49   0.594   0.160   0.079
    1UNL    H21   50   0.263   0.337   0.093
    1UNL    H22   51   0.058   0.380   0.030
    1UNL    H23   52  -0.274   0.309  -0.053
    1UNL    H24   53  -0.308   0.053  -0.102
    1UNL    H25   54  -0.343   0.129   0.132
    1UNL    H26   55  -0.236   0.008   0.192
   0.00000   0.00000   0.00000   0.00000   0.00000   0.00000   0.00000   0.00000   0.00000
Generated with MDTraj, t= 8.0
 55
    1UNL     C1    1  -0.602   0.119   0.040
    1UNL     C2    2  -0.572  -0.035   0.052
    1UNL     C3    3  -0.588  -0.096  -0.089
    1UNL     C4    4  -0.428  -0.070   0.116
    1UNL     C5    5  -0.376  -0.211   0.083
    1UNL     C6    6  -0.271  -0.232  -0.003
    1UNL     C7    7  -0.191  -0.122  -0.064
    1UNL     C8    8  -0.198  -0.139  -0.217
    1UNL     O1    9  -0.050  -0.122  -0.022
    1UNL     C9   10  -0.010   0.006   0.016
    1UNL    C10   11   0.123   0.049   0.039
    1UNL    C11   12   0.226  -0.050   0.045
    1UNL     O2   13   0.208  -0.171   0.052
    1UNL    C12   14   0.365  -0.013   0.029
    1UNL    C13   15   0.466  -0.102   0.043
    1UNL    C14   16   0.610  -0.062   0.038
    1UNL    C15   17   0.708  -0.157   0.028
    1UNL    C16   18   0.839  -0.118   0.030
    1UNL    C17   19   0.872   0.020   0.026
    1UNL    C18   20   0.772   0.113   0.036
    1UNL    C19   21   0.642   0.074   0.049
    1UNL    C20   22   0.149   0.190   0.063
    1UNL     O3   23   0.274   0.247   0.072
    1UNL    C21   24   0.035   0.274   0.039
    1UNL    C22   25  -0.090   0.232   0.005
    1UNL     O4   26  -0.195   0.321  -0.018
    1UNL    C23   27  -0.113   0.096  -0.004
    1UNL    C24   28  -0.242   0.025  -0.025
    1UNL    C25   29  -0.322   0.032   0.104
    1UNL     H1   30  -0.609   0.175   0.132
    1UNL     H2   31  -0.701   0.143  -0.002
    1UNL     H3   32  -0.535   0.177  -0.021
    1UNL     H4   33  -0.644  -0.086   0.115
    1UNL     H5   34  -0.566  -0.211  -0.087
    1UNL     H6   35  -0.539  -0.033  -0.160
    1UNL     H7   36  -0.686  -0.100  -0.130
    1UNL     H8   37  -0.449  -0.074   0.223
    1UNL     H9   38  -0.413  -0.289   0.154
    1UNL    H10   39  -0.240  -0.331  -0.024
    1UNL    H11   40  -0.301  -0.158  -0.246
    1UNL    H12   41  -0.157  -0.056  -0.267
    1UNL    H13   42  -0.137  -0.219  -0.261
    1UNL    H14   43   0.389   0.090  -0.000
    1UNL    H15   44   0.434  -0.206   0.057
    1UNL    H16   45   0.671  -0.254   0.011
    1UNL    H17   46   0.926  -0.182   0.034
    1UNL    H18   47   0.970   0.056   0.044
    1UNL    H19   48   0.783   0.226   0.033
    1UNL    H20   49   0.567   0.154   0.044
    1UNL    H21   50   0.253   0.341   0.055
    1UNL    H22   51   0.057   0.379   0.020
    1UNL    H23   52  -0.267   0.271  -0.060
    1UNL    H24   53  -0.297   0.062  -0.102
    1UNL    H25   54  -0.363   0.139   0.122
    1UNL    H26   55  -0.258   0.021   0.200
   0.00000   0.00000   0.00000   0.00000   0.00000   0.00000   0.00000   0.00000   0.00000
Generated with MDTraj, t= 9.0
 55
    1UNL     C1    1  -0.620   0.097   0.059
    1UNL     C2    2  -0.573  -0.048   0.055
    1UNL     C3    3  -0.576  -0.088  -0.091
    1UNL     C4    4  -0.429  -0.074   0.131
    1UNL     C5    5  -0.376  -0.215   0.091
    1UNL     C6    6  -0.271  -0.221   0.006
    1UNL     C7    7  -0.201  -0.113  -0.066
    1UNL     C8    8  -0.193  -0.137  -0.220
    1UNL     O1    9  -0.063  -0.121  -0.024
    1UNL     C9   10  -0.017   0.003  -0.007
    1UNL    C10   11   0.116   0.044   0.021
    1UNL    C11   12   0.223  -0.060   0.029
    1UNL     O2   13   0.198  -0.180   0.039
    1UNL    C12   14   0.362  -0.016   0.030
    1UNL    C13   15   0.468  -0.096   0.040
    1UNL    C14   16   0.607  -0.055   0.049
    1UNL    C15   17   0.711  -0.153   0.051
    1UNL    C16   18   0.846  -0.113   0.053
    1UNL    C17   19   0.878   0.020   0.035
    1UNL    C18   20   0.780   0.116   0.038
    1UNL    C19   21   0.650   0.080   0.043
    1UNL    C20   22   0.146   0.184   0.034
    1UNL     O3   23   0.274   0.225   0.068
    1UNL    C21   24   0.049   0.281   0.015
    1UNL    C22   25  -0.082   0.240  -0.002
    1UNL     O4   26  -0.179   0.337   0.009
    1UNL    C23   27  -0.117   0.102  -0.014
    1UNL    C24   28  -0.250   0.033  -0.027
    1UNL    C25   29  -0.324   0.037   0.106
    1UNL     H1   30  -0.622   0.134   0.163
    1UNL     H2   31  -0.723   0.100   0.024
    1UNL     H3   32  -0.561   0.161   0.001
    1UNL     H4   33  -0.646  -0.114   0.108
    1UNL     H5   34  -0.608  -0.198  -0.099
    1UNL     H6   35  -0.483  -0.066  -0.143
    1UNL     H7   36  -0.645  -0.045  -0.159
    1UNL     H8   37  -0.445  -0.073   0.235
    1UNL     H9   38  -0.418  -0.301   0.135
    1UNL    H10   39  -0.238  -0.322  -0.019
    1UNL    H11   40  -0.299  -0.150  -0.254
    1UNL    H12   41  -0.143  -0.063  -0.279
    1UNL    H13   42  -0.144  -0.222  -0.251
    1UNL    H14   43   0.373   0.072  -0.019
    1UNL    H15   44   0.455  -0.197   0.062
    1UNL    H16   45   0.684  -0.259   0.028
    1UNL    H17   46   0.928  -0.184   0.051
    1UNL    H18   47   0.983   0.055   0.017
    1UNL    H19   48   0.801   0.215   0.019
    1UNL    H20   49   0.585   0.161   0.020
    1UNL    H21   50   0.280   0.321   0.097
    1UNL    H22   51   0.087   0.382   0.015
    1UNL    H23   52  -0.267   0.293   0.014
    1UNL    H24   53  -0.303   0.072  -0.105
    1UNL    H25   54  -0.390   0.132   0.133
    1UNL    H26   55  -0.250   0.035   0.193
   0.00000   0.00000   0.00000   0.00000   0.00000   0.00000   0.00000   0.00000   0.00000
Generated with MDTraj, t= 10.0
 55
    1UNL     C1    1  -0.646   0.077   0.092
    1UNL     C2    2  -0.569  -0.052   0.048
    1UNL     C3    3  -0.555  -0.039  -0.107
    1UNL     C4    4  -0.438  -0.077   0.125
    1UNL     C5    5  -0.371  -0.208   0.103
    1UNL     C6    6  -0.266  -0.226   0.022
    1UNL     C7    7  -0.196  -0.115  -0.062
    1UNL     C8    8  -0.218  -0.143  -0.212
    1UNL     O1    9  -0.052  -0.125  -0.038
    1UNL     C9   10  -0.012   0.004  -0.009
    1UNL    C10   11   0.122   0.046   0.005
    1UNL    C11   12   0.228  -0.050   0.023
    1UNL     O2   13   0.204  -0.170   0.020
    1UNL    C12   14   0.370  -0.006   0.036
    1UNL    C13   15   0.472  -0.092   0.033
    1UNL    C14   16   0.613  -0.058   0.044
    1UNL    C15   17   0.711  -0.156   0.065
    1UNL    C16   18   0.848  -0.119   0.065
    1UNL    C17   19   0.882   0.012   0.058
    1UNL    C18   20   0.786   0.105   0.036
    1UNL    C19   21   0.654   0.074   0.032
    1UNL    C20   22   0.147   0.183   0.032
    1UNL     O3   23   0.276   0.235   0.032
    1UNL    C21   24   0.038   0.272   0.039
    1UNL    C22   25  -0.099   0.236   0.009
    1UNL     O4   26  -0.195   0.331  -0.011
    1UNL    C23   27  -0.121   0.101  -0.013
    1UNL    C24   28  -0.246   0.028  -0.019
    1UNL    C25   29  -0.325   0.032   0.112
    1UNL     H1   30  -0.656   0.066   0.201
    1UNL     H2   31  -0.746   0.078   0.049
    1UNL     H3   32  -0.585   0.160   0.066
    1UNL     H4   33  -0.633  -0.144   0.065
    1UNL     H5   34  -0.472  -0.096  -0.150
    1UNL     H6   35  -0.546   0.074  -0.127
    1UNL     H7   36  -0.643  -0.072  -0.167
    1UNL     H8   37  -0.470  -0.076   0.224
    1UNL     H9   38  -0.421  -0.302   0.139
    1UNL    H10   39  -0.225  -0.323   0.020
    1UNL    H11   40  -0.313  -0.114  -0.259
    1UNL    H12   41  -0.135  -0.095  -0.261
    1UNL    H13   42  -0.200  -0.240  -0.235
    1UNL    H14   43   0.388   0.097   0.007
    1UNL    H15   44   0.445  -0.199   0.032
    1UNL    H16   45   0.679  -0.254   0.086
    1UNL    H17   46   0.913  -0.200   0.092
    1UNL    H18   47   0.983   0.041   0.071
    1UNL    H19   48   0.834   0.208   0.043
    1UNL    H20   49   0.583   0.155   0.029
    1UNL    H21   50   0.273   0.337   0.046
    1UNL    H22   51   0.040   0.371   0.078
    1UNL    H23   52  -0.289   0.306  -0.028
    1UNL    H24   53  -0.302   0.069  -0.101
    1UNL    H25   54  -0.363   0.142   0.134
    1UNL    H26   55  -0.254   0.012   0.201
   0.00000   0.00000   0.00000   0.00000   0.00000   0.00000   0.00000   0.00000   0.00000
Generated with MDTraj, t= 11.0
 55
    1UNL     C1    1  -0.667   0.046   0.144
    1UNL     C2    2  -0.581  -0.045   0.056
    1UNL     C3    3  -0.568  -0.008  -0.097
    1UNL     C4    4  -0.439  -0.077   0.112
    1UNL     C5    5  -0.379  -0.212   0.084
    1UNL     C6    6  -0.266  -0.238   0.019
    1UNL     C7    7  -0.186  -0.130  -0.055
    1UNL     C8    8  -0.176  -0.153  -0.207
    1UNL     O1    9  -0.047  -0.122  -0.004
    1UNL     C9   10  -0.009   0.008  -0.007
    1UNL    C10   11   0.127   0.058   0.003
    1UNL    C11   12   0.239  -0.034   0.006
    1UNL     O2   13   0.219  -0.153  -0.004
    1UNL    C12   14   0.375   0.000   0.025
    1UNL    C13   15   0.469  -0.092   0.028
    1UNL    C14   16   0.611  -0.059   0.044
    1UNL    C15   17   0.700  -0.159   0.070
    1UNL    C16   18   0.832  -0.134   0.084
    1UNL    C17   19   0.878  -0.008   0.079
    1UNL    C18   20   0.794   0.098   0.046
    1UNL    C19   21   0.661   0.073   0.018
    1UNL    C20   22   0.143   0.198   0.014
    1UNL     O3   23   0.267   0.246   0.035
    1UNL    C21   24   0.038   0.284   0.008
    1UNL    C22   25  -0.091   0.236  -0.008
    1UNL     O4   26  -0.200   0.319   0.002
    1UNL    C23   27  -0.114   0.096  -0.012
    1UNL    C24   28  -0.246   0.016  -0.031
    1UNL    C25   29  -0.340   0.042   0.091
    1UNL     H1   30  -0.665   0.010   0.247
    1UNL     H2   31  -0.771   0.053   0.117
    1UNL     H3   32  -0.623   0.144   0.137
    1UNL     H4   33  -0.637  -0.144   0.051
    1UNL     H5   34  -0.495  -0.066  -0.146
    1UNL     H6   35  -0.545   0.104  -0.105
    1UNL     H7   36  -0.675  -0.022  -0.146
    1UNL     H8   37  -0.465  -0.080   0.213
    1UNL     H9   38  -0.408  -0.293   0.143
    1UNL    H10   39  -0.220  -0.337   0.016
    1UNL    H11   40  -0.261  -0.204  -0.239
    1UNL    H12   41  -0.159  -0.060  -0.257
    1UNL    H13   42  -0.090  -0.215  -0.232
    1UNL    H14   43   0.403   0.108   0.038
    1UNL    H15   44   0.434  -0.190   0.009
    1UNL    H16   45   0.663  -0.262   0.087
    1UNL    H17   46   0.897  -0.215   0.112
    1UNL    H18   47   0.986  -0.003   0.104
    1UNL    H19   48   0.829   0.198   0.043
    1UNL    H20   49   0.603   0.166   0.004
    1UNL    H21   50   0.271   0.346   0.029
    1UNL    H22   51   0.043   0.392  -0.010
    1UNL    H23   52  -0.285   0.269   0.002
    1UNL    H24   53  -0.287   0.065  -0.124
    1UNL    H25   54  -0.393   0.142   0.074
    1UNL    H26   55  -0.267   0.062   0.180
   0.00000   0.00000   0.00000   0.00000   0.00000   0.00000   0.00000   0.00000   0.00000
Generated with MDTraj, t= 12.0
 55
    1UNL     C1    1  -0.650   0.020   0.166
    1UNL     C2    2  -0.578  -0.060   0.069
    1UNL     C3    3  -0.564  -0.016  -0.079
    1UNL     C4    4  -0.438  -0.090   0.128
    1UNL     C5    5  -0.385  -0.220   0.080
    1UNL     C6    6  -0.277  -0.232   0.004
    1UNL     C7    7  -0.191  -0.121  -0.062
    1UNL     C8    8  -0.176  -0.136  -0.215
    1UNL     O1    9  -0.055  -0.117   0.003
    1UNL     C9   10  -0.011   0.016   0.010
    1UNL    C10   11   0.122   0.061   0.014
    1UNL    C11   12   0.230  -0.031   0.001
    1UNL     O2   13   0.206  -0.146  -0.032
    1UNL    C12   14   0.373   0.011   0.015
    1UNL    C13   15   0.474  -0.075   0.022
    1UNL    C14   16   0.616  -0.064   0.046
    1UNL    C15   17   0.703  -0.165   0.084
    1UNL    C16   18   0.834  -0.144   0.105
    1UNL    C17   19   0.887  -0.021   0.088
    1UNL    C18   20   0.810   0.089   0.060
    1UNL    C19   21   0.671   0.066   0.025
    1UNL    C20   22   0.143   0.203   0.014
    1UNL     O3   23   0.273   0.253   0.022
    1UNL    C21   24   0.029   0.286   0.002
    1UNL    C22   25  -0.103   0.242  -0.015
    1UNL     O4   26  -0.200   0.334  -0.041
    1UNL    C23   27  -0.118   0.104  -0.007
    1UNL    C24   28  -0.244   0.022  -0.031
    1UNL    C25   29  -0.342   0.029   0.094
    1UNL     H1   30  -0.674  -0.027   0.261
    1UNL     H2   31  -0.745   0.050   0.128
    1UNL     H3   32  -0.593   0.114   0.175
    1UNL     H4   33  -0.635  -0.158   0.060
    1UNL     H5   34  -0.541  -0.093  -0.151
    1UNL     H6   35  -0.495   0.071  -0.093
    1UNL     H7   36  -0.669   0.036  -0.100
    1UNL     H8   37  -0.454  -0.098   0.230
    1UNL     H9   38  -0.434  -0.309   0.122
    1UNL    H10   39  -0.241  -0.332  -0.009
    1UNL    H11   40  -0.263  -0.098  -0.251
    1UNL    H12   41  -0.089  -0.087  -0.253
    1UNL    H13   42  -0.180  -0.245  -0.243
    1UNL    H14   43   0.395   0.108   0.047
    1UNL    H15   44   0.442  -0.176  -0.005
    1UNL    H16   45   0.663  -0.263   0.082
    1UNL    H17   46   0.907  -0.223   0.122
    1UNL    H18   47   0.992  -0.019   0.082
    1UNL    H19   48   0.859   0.188   0.064
    1UNL    H20   49   0.621   0.148  -0.017
    1UNL    H21   50   0.271   0.344  -0.011
    1UNL    H22   51   0.058   0.387  -0.007
    1UNL    H23   52  -0.289   0.293  -0.054
    1UNL    H24   53  -0.299   0.057  -0.125
    1UNL    H25   54  -0.396   0.125   0.097
    1UNL    H26   55  -0.266   0.038   0.183
   0.00000   0.00000   0.00000   0.00000   0.00000   0.00000   0.00000   0.00000   0.00000
Generated with MDTraj, t= 13.0
 55
    1UNL     C1    1  -0.628   0.046   0.169
    1UNL     C2    2  -0.561  -0.063   0.084
    1UNL     C3    3  -0.565  -0.041  -0.068
    1UNL     C4    4  -0.413  -0.093   0.133
    1UNL     C5    5  -0.365  -0.225   0.079
    1UNL     C6    6  -0.267  -0.233  -0.007
    1UNL     C7    7  -0.191  -0.119  -0.063
    1UNL     C8    8  -0.194  -0.120  -0.218
    1UNL     O1    9  -0.051  -0.119  -0.031
    1UNL     C9   10  -0.010   0.012  -0.022
    1UNL    C10   11   0.117   0.069   0.000
    1UNL    C11   12   0.226  -0.028  -0.005
    1UNL     O2   13   0.208  -0.145  -0.036
    1UNL    C12   14   0.364   0.007   0.032
    1UNL    C13   15   0.456  -0.091   0.026
    1UNL    C14   16   0.602  -0.067   0.059
    1UNL    C15   17   0.690  -0.168   0.093
    1UNL    C16   18   0.821  -0.146   0.105
    1UNL    C17   19   0.880  -0.020   0.092
    1UNL    C18   20   0.794   0.081   0.064
    1UNL    C19   21   0.658   0.062   0.048
    1UNL    C20   22   0.142   0.211  -0.001
    1UNL     O3   23   0.268   0.264   0.014
    1UNL    C21   24   0.028   0.299  -0.013
    1UNL    C22   25  -0.097   0.244  -0.018
    1UNL     O4   26  -0.208   0.328  -0.036
    1UNL    C23   27  -0.115   0.107  -0.023
    1UNL    C24   28  -0.247   0.028  -0.017
    1UNL    C25   29  -0.305   0.019   0.120
    1UNL     H1   30  -0.619   0.021   0.274
    1UNL     H2   31  -0.734   0.050   0.154
    1UNL     H3   32  -0.584   0.143   0.137
    1UNL     H4   33  -0.613  -0.159   0.103
    1UNL     H5   34  -0.487  -0.096  -0.134
    1UNL     H6   35  -0.540   0.066  -0.084
    1UNL     H7   36  -0.669  -0.036  -0.116
    1UNL     H8   37  -0.424  -0.114   0.234
    1UNL     H9   38  -0.436  -0.302   0.095
    1UNL    H10   39  -0.245  -0.336  -0.039
    1UNL    H11   40  -0.274  -0.167  -0.270
    1UNL    H12   41  -0.170  -0.024  -0.252
    1UNL    H13   42  -0.101  -0.182  -0.230
    1UNL    H14   43   0.384   0.108   0.057
    1UNL    H15   44   0.416  -0.189   0.020
    1UNL    H16   45   0.649  -0.268   0.112
    1UNL    H17   46   0.876  -0.239   0.108
    1UNL    H18   47   0.988  -0.009   0.117
    1UNL    H19   48   0.842   0.179   0.063
    1UNL    H20   49   0.598   0.154   0.031
    1UNL    H21   50   0.262   0.358   0.025
    1UNL    H22   51   0.037   0.406   0.007
    1UNL    H23   52  -0.279   0.266  -0.064
    1UNL    H24   53  -0.327   0.068  -0.092
    1UNL    H25   54  -0.344   0.113   0.157
    1UNL    H26   55  -0.220  -0.007   0.195
   0.00000   0.00000   0.00000   0.00000   0.00000   0.00000   0.00000   0.00000   0.00000
Generated with MDTraj, t= 14.0
 55
    1UNL     C1    1  -0.603   0.060   0.170
    1UNL     C2    2  -0.547  -0.063   0.103
    1UNL     C3    3  -0.581  -0.068  -0.049
    1UNL     C4    4  -0.395  -0.084   0.149
    1UNL     C5    5  -0.347  -0.214   0.087
    1UNL     C6    6  -0.256  -0.225  -0.007
    1UNL     C7    7  -0.198  -0.112  -0.084
    1UNL     C8    8  -0.212  -0.129  -0.238
    1UNL     O1    9  -0.053  -0.114  -0.064
    1UNL     C9   10  -0.010   0.020  -0.051
    1UNL    C10   11   0.120   0.062  -0.021
    1UNL    C11   12   0.231  -0.038  -0.019
    1UNL     O2   13   0.198  -0.157  -0.031
    1UNL    C12   14   0.368   0.007   0.014
    1UNL    C13   15   0.460  -0.081   0.050
    1UNL    C14   16   0.597  -0.055   0.062
    1UNL    C15   17   0.677  -0.168   0.095
    1UNL    C16   18   0.818  -0.151   0.105
    1UNL    C17   19   0.864  -0.024   0.110
    1UNL    C18   20   0.786   0.088   0.085
    1UNL    C19   21   0.652   0.075   0.069
    1UNL    C20   22   0.141   0.199  -0.009
    1UNL     O3   23   0.270   0.257   0.001
    1UNL    C21   24   0.031   0.286  -0.007
    1UNL    C22   25  -0.102   0.243  -0.020
    1UNL     O4   26  -0.203   0.329   0.006
    1UNL    C23   27  -0.124   0.105  -0.048
    1UNL    C24   28  -0.245   0.023  -0.030
    1UNL    C25   29  -0.295   0.032   0.117
    1UNL     H1   30  -0.575   0.047   0.274
    1UNL     H2   31  -0.710   0.060   0.176
    1UNL     H3   32  -0.570   0.154   0.120
    1UNL     H4   33  -0.596  -0.153   0.143
    1UNL     H5   34  -0.497  -0.131  -0.109
    1UNL     H6   35  -0.572   0.032  -0.095
    1UNL     H7   36  -0.683  -0.095  -0.077
    1UNL     H8   37  -0.399  -0.097   0.252
    1UNL     H9   38  -0.397  -0.302   0.133
    1UNL    H10   39  -0.243  -0.314  -0.064
    1UNL    H11   40  -0.315  -0.091  -0.261
    1UNL    H12   41  -0.148  -0.068  -0.293
    1UNL    H13   42  -0.208  -0.233  -0.266
    1UNL    H14   43   0.379   0.119   0.023
    1UNL    H15   44   0.438  -0.188   0.064
    1UNL    H16   45   0.635  -0.267   0.082
    1UNL    H17   46   0.889  -0.231   0.124
    1UNL    H18   47   0.965  -0.022   0.136
    1UNL    H19   48   0.831   0.184   0.088
    1UNL    H20   49   0.591   0.159   0.074
    1UNL    H21   50   0.270   0.350   0.023
    1UNL    H22   51   0.045   0.385   0.031
    1UNL    H23   52  -0.287   0.290  -0.028
    1UNL    H24   53  -0.325   0.062  -0.106
    1UNL    H25   54  -0.336   0.129   0.137
    1UNL    H26   55  -0.206   0.023   0.184
   0.00000   0.00000   0.00000   0.00000   0.00000   0.00000   0.00000   0.00000   0.00000
Generated with MDTraj, t= 15.0
 55
    1UNL     C1    1  -0.598   0.058   0.180
    1UNL     C2    2  -0.546  -0.073   0.117
    1UNL     C3    3  -0.583  -0.074  -0.035
    1UNL     C4    4  -0.393  -0.083   0.143
    1UNL     C5    5  -0.339  -0.213   0.092
    1UNL     C6    6  -0.255  -0.225  -0.005
    1UNL     C7    7  -0.203  -0.107  -0.094
    1UNL     C8    8  -0.258  -0.131  -0.232
    1UNL     O1    9  -0.061  -0.103  -0.097
    1UNL     C9   10  -0.012   0.024  -0.055
    1UNL    C10   11   0.124   0.059  -0.028
    1UNL    C11   12   0.229  -0.043  -0.023
    1UNL     O2   13   0.207  -0.162  -0.035
    1UNL    C12   14   0.367  -0.006  -0.009
    1UNL    C13   15   0.460  -0.095   0.036
    1UNL    C14   16   0.605  -0.063   0.062
    1UNL    C15   17   0.693  -0.166   0.084
    1UNL    C16   18   0.824  -0.137   0.130
    1UNL    C17   19   0.872  -0.010   0.134
    1UNL    C18   20   0.779   0.089   0.119
    1UNL    C19   21   0.652   0.064   0.084
    1UNL    C20   22   0.141   0.199  -0.013
    1UNL     O3   23   0.267   0.252  -0.018
    1UNL    C21   24   0.035   0.289  -0.005
    1UNL    C22   25  -0.097   0.242  -0.009
    1UNL     O4   26  -0.198   0.339   0.007
    1UNL    C23   27  -0.117   0.108  -0.036
    1UNL    C24   28  -0.247   0.036  -0.041
    1UNL    C25   29  -0.302   0.030   0.105
    1UNL     H1   30  -0.575   0.060   0.285
    1UNL     H2   31  -0.707   0.061   0.183
    1UNL     H3   32  -0.569   0.149   0.124
    1UNL     H4   33  -0.583  -0.163   0.161
    1UNL     H5   34  -0.594  -0.181  -0.069
    1UNL     H6   35  -0.508  -0.028  -0.107
    1UNL     H7   36  -0.677  -0.019  -0.049
    1UNL     H8   37  -0.390  -0.076   0.247
    1UNL     H9   38  -0.354  -0.297   0.156
    1UNL    H10   39  -0.189  -0.310  -0.019
    1UNL    H11   40  -0.370  -0.143  -0.234
    1UNL    H12   41  -0.239  -0.051  -0.302
    1UNL    H13   42  -0.215  -0.218  -0.268
    1UNL    H14   43   0.378   0.095   0.022
    1UNL    H15   44   0.436  -0.200   0.031
    1UNL    H16   45   0.668  -0.265   0.050
    1UNL    H17   46   0.898  -0.215   0.119
    1UNL    H18   47   0.979   0.027   0.139
    1UNL    H19   48   0.809   0.197   0.121
    1UNL    H20   49   0.584   0.152   0.077
    1UNL    H21   50   0.255   0.348  -0.038
    1UNL    H22   51   0.048   0.394   0.006
    1UNL    H23   52  -0.289   0.303   0.007
    1UNL    H24   53  -0.321   0.084  -0.115
    1UNL    H25   54  -0.359   0.118   0.128
    1UNL    H26   55  -0.219   0.024   0.172
   0.00000   0.00000   0.00000   0.00000   0.00000   0.00000   0.00000   0.00000   0.00000
Generated with MDTraj, t= 16.0
 55
    1UNL     C1    1  -0.617   0.046   0.190
    1UNL     C2    2  -0.540  -0.070   0.120
    1UNL     C3    3  -0.552  -0.064  -0.032
    1UNL     C4    4  -0.392  -0.083   0.161
    1UNL     C5    5  -0.337  -0.217   0.104
    1UNL     C6    6  -0.270  -0.224  -0.005
    1UNL     C7    7  -0.205  -0.106  -0.084
    1UNL     C8    8  -0.239  -0.118  -0.232
    1UNL     O1    9  -0.063  -0.114  -0.066
    1UNL     C9   10  -0.013   0.015  -0.053
    1UNL    C10   11   0.125   0.054  -0.043
    1UNL    C11   12   0.232  -0.049  -0.041
    1UNL     O2   13   0.215  -0.169  -0.067
    1UNL    C12   14   0.363  -0.002  -0.007
    1UNL    C13   15   0.459  -0.091   0.002
    1UNL    C14   16   0.588  -0.063   0.058
    1UNL    C15   17   0.688  -0.165   0.073
    1UNL    C16   18   0.814  -0.140   0.128
    1UNL    C17   19   0.845  -0.005   0.158
    1UNL    C18   20   0.759   0.098   0.131
    1UNL    C19   21   0.627   0.067   0.095
    1UNL    C20   22   0.151   0.198  -0.040
    1UNL     O3   23   0.274   0.251  -0.006
    1UNL    C21   24   0.048   0.285  -0.027
    1UNL    C22   25  -0.087   0.246  -0.022
    1UNL     O4   26  -0.187   0.342  -0.002
    1UNL    C23   27  -0.113   0.109  -0.028
    1UNL    C24   28  -0.240   0.032  -0.030
    1UNL    C25   29  -0.299   0.032   0.116
    1UNL     H1   30  -0.631   0.016   0.293
    1UNL     H2   31  -0.722   0.055   0.156
    1UNL     H3   32  -0.569   0.142   0.174
    1UNL     H4   33  -0.576  -0.164   0.152
    1UNL     H5   34  -0.482  -0.128  -0.069
    1UNL     H6   35  -0.541   0.034  -0.093
    1UNL     H7   36  -0.654  -0.105  -0.061
    1UNL     H8   37  -0.397  -0.077   0.266
    1UNL     H9   38  -0.375  -0.308   0.154
    1UNL    H10   39  -0.234  -0.319  -0.041
    1UNL    H11   40  -0.340  -0.106  -0.278
    1UNL    H12   41  -0.203  -0.021  -0.270
    1UNL    H13   42  -0.184  -0.193  -0.280
    1UNL    H14   43   0.372   0.094   0.033
    1UNL    H15   44   0.432  -0.193  -0.017
    1UNL    H16   45   0.662  -0.269   0.053
    1UNL    H17   46   0.894  -0.215   0.122
    1UNL    H18   47   0.938   0.039   0.180
    1UNL    H19   48   0.784   0.194   0.165
    1UNL    H20   49   0.558   0.148   0.103
    1UNL    H21   50   0.267   0.352  -0.017
    1UNL    H22   51   0.072   0.390  -0.001
    1UNL    H23   52  -0.266   0.286   0.015
    1UNL    H24   53  -0.306   0.083  -0.106
    1UNL    H25   54  -0.351   0.126   0.122
    1UNL    H26   55  -0.223   0.027   0.187
   0.00000   0.00000   0.00000   0.00000   0.00000   0.00000   0.00000   0.00000   0.00000
Generated with MDTraj, t= 17.0
 55
    1UNL     C1    1  -0.604   0.055   0.205
    1UNL     C2    2  -0.553  -0.063   0.114
    1UNL     C3    3  -0.569  -0.022  -0.032
    1UNL     C4    4  -0.405  -0.091   0.150
    1UNL     C5    5  -0.348  -0.221   0.087
    1UNL     C6    6  -0.247  -0.233   0.011
    1UNL     C7    7  -0.191  -0.122  -0.064
    1UNL     C8    8  -0.211  -0.146  -0.217
    1UNL     O1    9  -0.047  -0.115  -0.036
    1UNL     C9   10  -0.005   0.018  -0.036
    1UNL    C10   11   0.127   0.067  -0.044
    1UNL    C11   12   0.231  -0.035  -0.070
    1UNL     O2   13   0.211  -0.142  -0.126
    1UNL    C12   14   0.365  -0.016  -0.011
    1UNL    C13   15   0.466  -0.101   0.005
    1UNL    C14   16   0.596  -0.066   0.060
    1UNL    C15   17   0.695  -0.164   0.061
    1UNL    C16   18   0.818  -0.137   0.124
    1UNL    C17   19   0.839  -0.008   0.178
    1UNL    C18   20   0.749   0.090   0.152
    1UNL    C19   21   0.626   0.065   0.098
    1UNL    C20   22   0.150   0.202  -0.027
    1UNL     O3   23   0.276   0.261  -0.043
    1UNL    C21   24   0.038   0.287  -0.009
    1UNL    C22   25  -0.098   0.242  -0.014
    1UNL     O4   26  -0.197   0.338  -0.029
    1UNL    C23   27  -0.117   0.105  -0.019
    1UNL    C24   28  -0.242   0.022  -0.021
    1UNL    C25   29  -0.311   0.022   0.122
    1UNL     H1   30  -0.576   0.034   0.309
    1UNL     H2   31  -0.715   0.057   0.213
    1UNL     H3   32  -0.569   0.148   0.166
    1UNL     H4   33  -0.599  -0.155   0.136
    1UNL     H5   34  -0.505  -0.077  -0.094
    1UNL     H6   35  -0.546   0.080  -0.053
    1UNL     H7   36  -0.675  -0.035  -0.069
    1UNL     H8   37  -0.410  -0.103   0.255
    1UNL     H9   38  -0.403  -0.302   0.129
    1UNL    H10   39  -0.226  -0.329  -0.037
    1UNL    H11   40  -0.309  -0.119  -0.249
    1UNL    H12   41  -0.157  -0.087  -0.293
    1UNL    H13   42  -0.196  -0.254  -0.231
    1UNL    H14   43   0.372   0.085   0.032
    1UNL    H15   44   0.436  -0.201  -0.032
    1UNL    H16   45   0.674  -0.262   0.026
    1UNL    H17   46   0.889  -0.212   0.149
    1UNL    H18   47   0.939   0.004   0.226
    1UNL    H19   48   0.756   0.193   0.195
    1UNL    H20   49   0.543   0.129   0.122
    1UNL    H21   50   0.273   0.360  -0.015
    1UNL    H22   51   0.056   0.384   0.027
    1UNL    H23   52  -0.284   0.306  -0.061
    1UNL    H24   53  -0.309   0.060  -0.095
    1UNL    H25   54  -0.372   0.109   0.126
    1UNL    H26   55  -0.236   0.028   0.189
   0.00000   0.00000   0.00000   0.00000   0.00000   0.00000   0.00000   0.00000   0.00000
Generated with MDTraj, t= 18.0
 55
    1UNL     C1    1  -0.609   0.059   0.204
    1UNL     C2    2  -0.552  -0.047   0.115
    1UNL     C3    3  -0.570  -0.003  -0.029
    1UNL     C4    4  -0.403  -0.086   0.155
    1UNL     C5    5  -0.358  -0.223   0.100
    1UNL     C6    6  -0.268  -0.237   0.010
    1UNL     C7    7  -0.192  -0.125  -0.058
    1UNL     C8    8  -0.201  -0.152  -0.205
    1UNL     O1    9  -0.054  -0.127  -0.027
    1UNL     C9   10  -0.007   0.003  -0.046
    1UNL    C10   11   0.122   0.060  -0.050
    1UNL    C11   12   0.242  -0.025  -0.081
    1UNL     O2   13   0.240  -0.124  -0.153
    1UNL    C12   14   0.371   0.011  -0.014
    1UNL    C13   15   0.471  -0.075  -0.001
    1UNL    C14   16   0.601  -0.052   0.056
    1UNL    C15   17   0.689  -0.155   0.057
    1UNL    C16   18   0.808  -0.151   0.123
    1UNL    C17   19   0.856  -0.032   0.181
    1UNL    C18   20   0.767   0.075   0.191
    1UNL    C19   21   0.644   0.069   0.120
    1UNL    C20   22   0.137   0.202  -0.043
    1UNL     O3   23   0.258   0.260  -0.038
    1UNL    C21   24   0.023   0.286  -0.044
    1UNL    C22   25  -0.101   0.235  -0.029
    1UNL     O4   26  -0.213   0.309  -0.007
    1UNL    C23   27  -0.116   0.094  -0.025
    1UNL    C24   28  -0.245   0.019  -0.019
    1UNL    C25   29  -0.302   0.027   0.122
    1UNL     H1   30  -0.624   0.027   0.309
    1UNL     H2   31  -0.712   0.084   0.177
    1UNL     H3   32  -0.554   0.150   0.190
    1UNL     H4   33  -0.608  -0.135   0.128
    1UNL     H5   34  -0.529  -0.079  -0.098
    1UNL     H6   35  -0.512   0.081  -0.041
    1UNL     H7   36  -0.673   0.024  -0.050
    1UNL     H8   37  -0.407  -0.101   0.259
    1UNL     H9   38  -0.418  -0.295   0.156
    1UNL    H10   39  -0.229  -0.336  -0.014
    1UNL    H11   40  -0.298  -0.169  -0.239
    1UNL    H12   41  -0.175  -0.066  -0.267
    1UNL    H13   42  -0.134  -0.242  -0.222
    1UNL    H14   43   0.368   0.105   0.040
    1UNL    H15   44   0.460  -0.159  -0.064
    1UNL    H16   45   0.674  -0.246  -0.003
    1UNL    H17   46   0.872  -0.243   0.122
    1UNL    H18   47   0.955  -0.032   0.220
    1UNL    H19   48   0.794   0.169   0.232
    1UNL    H20   49   0.569   0.153   0.120
    1UNL    H21   50   0.262   0.352   0.000
    1UNL    H22   51   0.032   0.397  -0.042
    1UNL    H23   52  -0.295   0.259  -0.032
    1UNL    H24   53  -0.318   0.040  -0.090
    1UNL    H25   54  -0.341   0.124   0.134
    1UNL    H26   55  -0.222   0.016   0.186
   0.00000   0.00000   0.00000   0.00000   0.00000   0.00000   0.00000   0.00000   0.00000
Generated with MDTraj, t= 19.0
 55
    1UNL     C1    1  -0.597   0.054   0.200
    1UNL     C2    2  -0.538  -0.055   0.116
    1UNL     C3    3  -0.572  -0.025  -0.031
    1UNL     C4    4  -0.389  -0.089   0.162
    1UNL     C5    5  -0.342  -0.217   0.112
    1UNL     C6    6  -0.253  -0.233   0.019
    1UNL     C7    7  -0.189  -0.131  -0.070
    1UNL     C8    8  -0.232  -0.159  -0.217
    1UNL     O1    9  -0.042  -0.117  -0.053
    1UNL     C9   10  -0.008   0.018  -0.035
    1UNL    C10   11   0.127   0.069  -0.029
    1UNL    C11   12   0.235  -0.023  -0.049
    1UNL     O2   13   0.227  -0.125  -0.116
    1UNL    C12   14   0.370   0.022  -0.003
    1UNL    C13   15   0.471  -0.065  -0.014
    1UNL    C14   16   0.601  -0.057   0.046
    1UNL    C15   17   0.690  -0.165   0.051
    1UNL    C16   18   0.809  -0.158   0.112
    1UNL    C17   19   0.844  -0.044   0.180
    1UNL    C18   20   0.750   0.065   0.195
    1UNL    C19   21   0.624   0.053   0.129
    1UNL    C20   22   0.142   0.214  -0.043
    1UNL     O3   23   0.264   0.273  -0.054
    1UNL    C21   24   0.024   0.293  -0.029
    1UNL    C22   25  -0.107   0.244  -0.030
    1UNL     O4   26  -0.221   0.316  -0.031
    1UNL    C23   27  -0.116   0.102  -0.030
    1UNL    C24   28  -0.242   0.015  -0.028
    1UNL    C25   29  -0.291   0.022   0.116
    1UNL     H1   30  -0.617   0.032   0.307
    1UNL     H2   31  -0.695   0.085   0.166
    1UNL     H3   32  -0.538   0.142   0.181
    1UNL     H4   33  -0.589  -0.145   0.138
    1UNL     H5   34  -0.551  -0.107  -0.107
    1UNL     H6   35  -0.510   0.056  -0.056
    1UNL     H7   36  -0.668   0.008  -0.032
    1UNL     H8   37  -0.391  -0.096   0.269
    1UNL     H9   38  -0.383  -0.303   0.163
    1UNL    H10   39  -0.215  -0.334   0.006
    1UNL    H11   40  -0.337  -0.168  -0.230
    1UNL    H12   41  -0.210  -0.073  -0.279
    1UNL    H13   42  -0.181  -0.255  -0.246
    1UNL    H14   43   0.373   0.118   0.040
    1UNL    H15   44   0.449  -0.155  -0.077
    1UNL    H16   45   0.659  -0.255   0.007
    1UNL    H17   46   0.878  -0.233   0.091
    1UNL    H18   47   0.939  -0.030   0.230
    1UNL    H19   48   0.773   0.145   0.267
    1UNL    H20   49   0.559   0.132   0.120
    1UNL    H21   50   0.259   0.368  -0.067
    1UNL    H22   51   0.046   0.394  -0.003
    1UNL    H23   52  -0.290   0.247  -0.045
    1UNL    H24   53  -0.309   0.049  -0.099
    1UNL    H25   54  -0.329   0.114   0.143
    1UNL    H26   55  -0.202   0.012   0.174
   0.00000   0.00000   0.00000   0.00000   0.00000   0.00000   0.00000   0.00000   0.00000
Generated with MDTraj, t= 20.0
 55
    1UNL     C1    1  -0.615   0.033   0.200
    1UNL     C2    2  -0.533  -0.073   0.130
    1UNL     C3    3  -0.558  -0.089  -0.017
    1UNL     C4    4  -0.380  -0.084   0.169
    1UNL     C5    5  -0.316  -0.211   0.120
    1UNL     C6    6  -0.252  -0.230   0.008
    1UNL     C7    7  -0.201  -0.113  -0.072
    1UNL     C8    8  -0.213  -0.147  -0.220
    1UNL     O1    9  -0.056  -0.105  -0.043
    1UNL     C9   10  -0.013   0.031  -0.063
    1UNL    C10   11   0.122   0.074  -0.060
    1UNL    C11   12   0.229  -0.025  -0.060
    1UNL     O2   13   0.207  -0.141  -0.084
    1UNL    C12   14   0.365   0.005  -0.018
    1UNL    C13   15   0.456  -0.091   0.002
    1UNL    C14   16   0.590  -0.064   0.064
    1UNL    C15   17   0.687  -0.160   0.042
    1UNL    C16   18   0.815  -0.144   0.092
    1UNL    C17   19   0.849  -0.045   0.179
    1UNL    C18   20   0.748   0.058   0.200
    1UNL    C19   21   0.625   0.048   0.138
    1UNL    C20   22   0.143   0.217  -0.041
    1UNL     O3   23   0.268   0.263  -0.022
    1UNL    C21   24   0.033   0.303  -0.050
    1UNL    C22   25  -0.102   0.254  -0.045
    1UNL     O4   26  -0.202   0.351  -0.033
    1UNL    C23   27  -0.121   0.120  -0.054
    1UNL    C24   28  -0.250   0.036  -0.034
    1UNL    C25   29  -0.290   0.037   0.116
    1UNL     H1   30  -0.585   0.049   0.304
    1UNL     H2   31  -0.720   0.017   0.202
    1UNL     H3   32  -0.592   0.122   0.139
    1UNL     H4   33  -0.570  -0.164   0.173
    1UNL     H5   34  -0.504  -0.171  -0.068
    1UNL     H6   35  -0.523  -0.002  -0.070
    1UNL     H7   36  -0.658  -0.100  -0.035
    1UNL     H8   37  -0.379  -0.086   0.277
    1UNL     H9   38  -0.325  -0.299   0.177
    1UNL    H10   39  -0.230  -0.328  -0.033
    1UNL    H11   40  -0.319  -0.122  -0.245
    1UNL    H12   41  -0.156  -0.083  -0.285
    1UNL    H13   42  -0.200  -0.255  -0.229
    1UNL    H14   43   0.389   0.109   0.000
    1UNL    H15   44   0.422  -0.190   0.004
    1UNL    H16   45   0.661  -0.257  -0.005
    1UNL    H17   46   0.888  -0.228   0.075
    1UNL    H18   47   0.948  -0.051   0.228
    1UNL    H19   48   0.766   0.142   0.262
    1UNL    H20   49   0.544   0.124   0.152
    1UNL    H21   50   0.269   0.358  -0.028
    1UNL    H22   51   0.044   0.407  -0.027
    1UNL    H23   52  -0.289   0.310  -0.010
    1UNL    H24   53  -0.327   0.066  -0.101
    1UNL    H25   54  -0.329   0.129   0.145
    1UNL    H26   55  -0.195   0.030   0.169
   0.00000   0.00000   0.00000   0.00000   0.00000   0.00000   0.00000   0.00000   0.00000
Generated with MDTraj, t= 21.0
 55
    1UNL     C1    1  -0.613   0.042   0.191
    1UNL     C2    2  -0.533  -0.083   0.138
    1UNL     C3    3  -0.567  -0.110  -0.009
    1UNL     C4    4  -0.382  -0.079   0.162
    1UNL     C5    5  -0.311  -0.207   0.122
    1UNL     C6    6  -0.229  -0.218   0.017
    1UNL     C7    7  -0.193  -0.102  -0.081
    1UNL     C8    8  -0.249  -0.138  -0.226
    1UNL     O1    9  -0.053  -0.101  -0.082
    1UNL     C9   10  -0.004   0.027  -0.051
    1UNL    C10   11   0.130   0.076  -0.051
    1UNL    C11   12   0.239  -0.030  -0.051
    1UNL     O2   13   0.214  -0.144  -0.093
    1UNL    C12   14   0.358  -0.001   0.022
    1UNL    C13   15   0.453  -0.095   0.023
    1UNL    C14   16   0.584  -0.079   0.078
    1UNL    C15   17   0.687  -0.166   0.037
    1UNL    C16   18   0.822  -0.137   0.074
    1UNL    C17   19   0.842  -0.030   0.164
    1UNL    C18   20   0.743   0.061   0.195
    1UNL    C19   21   0.617   0.043   0.143
    1UNL    C20   22   0.149   0.214  -0.031
    1UNL     O3   23   0.276   0.262  -0.038
    1UNL    C21   24   0.039   0.302  -0.022
    1UNL    C22   25  -0.094   0.255  -0.036
    1UNL     O4   26  -0.204   0.339  -0.053
    1UNL    C23   27  -0.114   0.115  -0.029
    1UNL    C24   28  -0.245   0.036  -0.033
    1UNL    C25   29  -0.316   0.048   0.104
    1UNL     H1   30  -0.582   0.080   0.288
    1UNL     H2   31  -0.716   0.018   0.200
    1UNL     H3   32  -0.598   0.117   0.109
    1UNL     H4   33  -0.567  -0.165   0.200
    1UNL     H5   34  -0.512  -0.185  -0.055
    1UNL     H6   35  -0.541  -0.021  -0.067
    1UNL     H7   36  -0.673  -0.133  -0.024
    1UNL     H8   37  -0.378  -0.074   0.273
    1UNL     H9   38  -0.352  -0.299   0.166
    1UNL    H10   39  -0.179  -0.309  -0.003
    1UNL    H11   40  -0.359  -0.163  -0.244
    1UNL    H12   41  -0.231  -0.050  -0.286
    1UNL    H13   42  -0.191  -0.220  -0.257
    1UNL    H14   43   0.361   0.091   0.075
    1UNL    H15   44   0.433  -0.194  -0.025
    1UNL    H16   45   0.670  -0.243  -0.034
    1UNL    H17   46   0.890  -0.213   0.055
    1UNL    H18   47   0.940  -0.015   0.198
    1UNL    H19   48   0.775   0.160   0.229
    1UNL    H20   49   0.537   0.112   0.149
    1UNL    H21   50   0.284   0.359  -0.047
    1UNL    H22   51   0.042   0.413  -0.026
    1UNL    H23   52  -0.286   0.289  -0.040
    1UNL    H24   53  -0.302   0.084  -0.110
    1UNL    H25   54  -0.377   0.139   0.098
    1UNL    H26   55  -0.234   0.074   0.173
   0.00000   0.00000   0.00000   0.00000   0.00000   0.00000   0.00000   0.00000   0.00000
Generated with MDTraj, t= 22.0
 55
    1UNL     C1    1  -0.610   0.051   0.180
    1UNL     C2    2  -0.540  -0.074   0.128
    1UNL     C3    3  -0.559  -0.083  -0.018
    1UNL     C4    4  -0.389  -0.061   0.165
    1UNL     C5    5  -0.322  -0.197   0.129
    1UNL     C6    6  -0.246  -0.219   0.024
    1UNL     C7    7  -0.204  -0.117  -0.075
    1UNL     C8    8  -0.245  -0.163  -0.217
    1UNL     O1    9  -0.055  -0.111  -0.083
    1UNL     C9   10  -0.016   0.023  -0.065
    1UNL    C10   11   0.120   0.065  -0.065
    1UNL    C11   12   0.234  -0.036  -0.052
    1UNL     O2   13   0.230  -0.145  -0.109
    1UNL    C12   14   0.362   0.005   0.006
    1UNL    C13   15   0.458  -0.087   0.021
    1UNL    C14   16   0.596  -0.062   0.073
    1UNL    C15   17   0.695  -0.155   0.040
    1UNL    C16   18   0.825  -0.135   0.082
    1UNL    C17   19   0.864  -0.021   0.158
    1UNL    C18   20   0.762   0.062   0.193
    1UNL    C19   21   0.630   0.039   0.155
    1UNL    C20   22   0.142   0.201  -0.040
    1UNL     O3   23   0.266   0.252  -0.011
    1UNL    C21   24   0.033   0.291  -0.031
    1UNL    C22   25  -0.099   0.247  -0.030
    1UNL     O4   26  -0.197   0.338  -0.007
    1UNL    C23   27  -0.126   0.109  -0.049
    1UNL    C24   28  -0.253   0.033  -0.045
    1UNL    C25   29  -0.317   0.050   0.100
    1UNL     H1   30  -0.626   0.045   0.286
    1UNL     H2   31  -0.710   0.059   0.143
    1UNL     H3   32  -0.560   0.147   0.155
    1UNL     H4   33  -0.579  -0.164   0.178
    1UNL     H5   34  -0.503  -0.160  -0.049
    1UNL     H6   35  -0.520   0.006  -0.065
    1UNL     H7   36  -0.666  -0.105  -0.043
    1UNL     H8   37  -0.394  -0.046   0.277
    1UNL     H9   38  -0.344  -0.277   0.194
    1UNL    H10   39  -0.217  -0.320  -0.001
    1UNL    H11   40  -0.355  -0.169  -0.235
    1UNL    H12   41  -0.210  -0.081  -0.285
    1UNL    H13   42  -0.212  -0.262  -0.236
    1UNL    H14   43   0.385   0.105   0.030
    1UNL    H15   44   0.441  -0.184  -0.016
    1UNL    H16   45   0.664  -0.248  -0.003
    1UNL    H17   46   0.903  -0.206   0.049
    1UNL    H18   47   0.967   0.004   0.191
    1UNL    H19   48   0.786   0.150   0.249
    1UNL    H20   49   0.566   0.126   0.165
    1UNL    H21   50   0.247   0.345   0.023
    1UNL    H22   51   0.058   0.392  -0.026
    1UNL    H23   52  -0.285   0.300   0.010
    1UNL    H24   53  -0.320   0.060  -0.127
    1UNL    H25   54  -0.390   0.138   0.098
    1UNL    H26   55  -0.237   0.084   0.169
   0.00000   0.00000   0.00000   0.00000   0.00000   0.00000   0.00000   0.00000   0.00000
Generated with MDTraj, t= 23.0
 55
    1UNL     C1    1  -0.608   0.066   0.178
    1UNL     C2    2  -0.542  -0.053   0.101
    1UNL     C3    3  -0.574  -0.037  -0.052
    1UNL     C4    4  -0.400  -0.072   0.152
    1UNL     C5    5  -0.345  -0.214   0.124
    1UNL     C6    6  -0.245  -0.229   0.033
    1UNL     C7    7  -0.192  -0.125  -0.060
    1UNL     C8    8  -0.221  -0.177  -0.203
    1UNL     O1    9  -0.049  -0.118  -0.054
    1UNL     C9   10  -0.009   0.011  -0.045
    1UNL    C10   11   0.128   0.060  -0.037
    1UNL    C11   12   0.237  -0.034  -0.055
    1UNL     O2   13   0.215  -0.144  -0.105
    1UNL    C12   14   0.371   0.006  -0.012
    1UNL    C13   15   0.468  -0.082  -0.014
    1UNL    C14   16   0.599  -0.054   0.037
    1UNL    C15   17   0.704  -0.152   0.029
    1UNL    C16   18   0.824  -0.133   0.094
    1UNL    C17   19   0.846  -0.015   0.165
    1UNL    C18   20   0.741   0.069   0.185
    1UNL    C19   21   0.617   0.045   0.129
    1UNL    C20   22   0.141   0.201  -0.017
    1UNL     O3   23   0.267   0.257  -0.018
    1UNL    C21   24   0.033   0.284  -0.004
    1UNL    C22   25  -0.096   0.242  -0.020
    1UNL     O4   26  -0.205   0.334  -0.018
    1UNL    C23   27  -0.114   0.103  -0.042
    1UNL    C24   28  -0.242   0.022  -0.028
    1UNL    C25   29  -0.305   0.039   0.115
    1UNL     H1   30  -0.594   0.062   0.285
    1UNL     H2   31  -0.717   0.070   0.172
    1UNL     H3   32  -0.576   0.165   0.145
    1UNL     H4   33  -0.585  -0.153   0.132
    1UNL     H5   34  -0.544  -0.131  -0.100
    1UNL     H6   35  -0.512   0.035  -0.094
    1UNL     H7   36  -0.682  -0.022  -0.075
    1UNL     H8   37  -0.413  -0.067   0.266
    1UNL     H9   38  -0.351  -0.286   0.206
    1UNL    H10   39  -0.193  -0.321   0.029
    1UNL    H11   40  -0.327  -0.168  -0.223
    1UNL    H12   41  -0.170  -0.111  -0.280
    1UNL    H13   42  -0.207  -0.283  -0.211
    1UNL    H14   43   0.408   0.110  -0.015
    1UNL    H15   44   0.445  -0.187  -0.038
    1UNL    H16   45   0.664  -0.245  -0.013
    1UNL    H17   46   0.904  -0.204   0.101
    1UNL    H18   47   0.936  -0.003   0.216
    1UNL    H19   48   0.744   0.161   0.245
    1UNL    H20   49   0.536   0.118   0.147
    1UNL    H21   50   0.246   0.351   0.017
    1UNL    H22   51   0.061   0.392   0.010
    1UNL    H23   52  -0.274   0.289  -0.072
    1UNL    H24   53  -0.317   0.041  -0.108
    1UNL    H25   54  -0.365   0.138   0.125
    1UNL    H26   55  -0.228   0.045   0.197
   0.00000   0.00000   0.00000   0.00000   0.00000   0.00000   0.00000   0.00000   0.00000
Generated with MDTraj, t= 24.0
 55
    1UNL     C1    1  -0.630   0.063   0.168
    1UNL     C2    2  -0.555  -0.045   0.090
    1UNL     C3    3  -0.565  -0.021  -0.059
    1UNL     C4    4  -0.416  -0.068   0.158
    1UNL     C5    5  -0.370  -0.206   0.114
    1UNL     C6    6  -0.271  -0.230   0.020
    1UNL     C7    7  -0.190  -0.123  -0.050
    1UNL     C8    8  -0.191  -0.138  -0.203
    1UNL     O1    9  -0.052  -0.126  -0.009
    1UNL     C9   10  -0.004   0.004  -0.014
    1UNL    C10   11   0.129   0.054  -0.027
    1UNL    C11   12   0.236  -0.036  -0.060
    1UNL     O2   13   0.220  -0.146  -0.114
    1UNL    C12   14   0.368  -0.006  -0.002
    1UNL    C13   15   0.477  -0.078  -0.030
    1UNL    C14   16   0.609  -0.051   0.032
    1UNL    C15   17   0.708  -0.145   0.022
    1UNL    C16   18   0.825  -0.132   0.094
    1UNL    C17   19   0.845  -0.016   0.173
    1UNL    C18   20   0.748   0.079   0.173
    1UNL    C19   21   0.630   0.066   0.108
    1UNL    C20   22   0.143   0.196  -0.021
    1UNL     O3   23   0.275   0.250  -0.013
    1UNL    C21   24   0.037   0.278  -0.031
    1UNL    C22   25  -0.094   0.230  -0.027
    1UNL     O4   26  -0.207   0.313  -0.024
    1UNL    C23   27  -0.117   0.093  -0.020
    1UNL    C24   28  -0.247   0.019  -0.013
    1UNL    C25   29  -0.303   0.026   0.133
    1UNL     H1   30  -0.633   0.041   0.274
    1UNL     H2   31  -0.736   0.071   0.137
    1UNL     H3   32  -0.579   0.152   0.144
    1UNL     H4   33  -0.608  -0.145   0.109
    1UNL     H5   34  -0.511  -0.109  -0.115
    1UNL     H6   35  -0.507   0.061  -0.086
    1UNL     H7   36  -0.663  -0.020  -0.106
    1UNL     H8   37  -0.434  -0.070   0.272
    1UNL     H9   38  -0.435  -0.284   0.140
    1UNL    H10   39  -0.247  -0.333  -0.009
    1UNL    H11   40  -0.281  -0.169  -0.249
    1UNL    H12   41  -0.164  -0.039  -0.252
    1UNL    H13   42  -0.124  -0.222  -0.230
    1UNL    H14   43   0.395   0.083   0.051
    1UNL    H15   44   0.466  -0.162  -0.092
    1UNL    H16   45   0.703  -0.227  -0.046
    1UNL    H17   46   0.883  -0.223   0.109
    1UNL    H18   47   0.938  -0.000   0.234
    1UNL    H19   48   0.780   0.169   0.216
    1UNL    H20   49   0.561   0.142   0.116
    1UNL    H21   50   0.265   0.349  -0.021
    1UNL    H22   51   0.049   0.382  -0.039
    1UNL    H23   52  -0.287   0.265  -0.058
    1UNL    H24   53  -0.321   0.054  -0.092
    1UNL    H25   54  -0.338   0.133   0.158
    1UNL    H26   55  -0.221  -0.001   0.209
   0.00000   0.00000   0.00000   0.00000   0.00000   0.00000   0.00000   0.00000   0.00000
Generated with MDTraj, t= 25.0
 55
    1UNL     C1    1  -0.635   0.062   0.173
    1UNL     C2    2  -0.577  -0.050   0.081
    1UNL     C3    3  -0.570  -0.021  -0.064
    1UNL     C4    4  -0.434  -0.085   0.139
    1UNL     C5    5  -0.385  -0.221   0.093
    1UNL     C6    6  -0.270  -0.242   0.020
    1UNL     C7    7  -0.202  -0.128  -0.051
    1UNL     C8    8  -0.205  -0.151  -0.198
    1UNL     O1    9  -0.054  -0.127  -0.015
    1UNL     C9   10  -0.007   0.006  -0.011
    1UNL    C10   11   0.124   0.058  -0.017
    1UNL    C11   12   0.234  -0.040  -0.034
    1UNL     O2   13   0.214  -0.140  -0.104
    1UNL    C12   14   0.366  -0.003   0.023
    1UNL    C13   15   0.475  -0.077  -0.006
    1UNL    C14   16   0.606  -0.056   0.056
    1UNL    C15   17   0.707  -0.155   0.034
    1UNL    C16   18   0.835  -0.132   0.090
    1UNL    C17   19   0.866  -0.015   0.144
    1UNL    C18   20   0.779   0.092   0.145
    1UNL    C19   21   0.650   0.070   0.105
    1UNL    C20   22   0.147   0.196  -0.020
    1UNL     O3   23   0.278   0.247  -0.041
    1UNL    C21   24   0.043   0.288  -0.021
    1UNL    C22   25  -0.087   0.245  -0.011
    1UNL     O4   26  -0.198   0.334  -0.019
    1UNL    C23   27  -0.111   0.103  -0.010
    1UNL    C24   28  -0.237   0.022  -0.015
    1UNL    C25   29  -0.319   0.019   0.123
    1UNL     H1   30  -0.648   0.037   0.278
    1UNL     H2   31  -0.731   0.102   0.138
    1UNL     H3   32  -0.562   0.136   0.161
    1UNL     H4   33  -0.640  -0.146   0.090
    1UNL     H5   34  -0.512  -0.097  -0.132
    1UNL     H6   35  -0.514   0.072  -0.075
    1UNL     H7   36  -0.663  -0.020  -0.117
    1UNL     H8   37  -0.444  -0.092   0.254
    1UNL     H9   38  -0.430  -0.318   0.122
    1UNL    H10   39  -0.233  -0.341  -0.000
    1UNL    H11   40  -0.300  -0.140  -0.248
    1UNL    H12   41  -0.140  -0.075  -0.243
    1UNL    H13   42  -0.182  -0.260  -0.223
    1UNL    H14   43   0.381   0.080   0.088
    1UNL    H15   44   0.478  -0.163  -0.072
    1UNL    H16   45   0.684  -0.246  -0.024
    1UNL    H17   46   0.910  -0.207   0.076
    1UNL    H18   47   0.961  -0.000   0.185
    1UNL    H19   48   0.824   0.188   0.176
    1UNL    H20   49   0.575   0.153   0.093
    1UNL    H21   50   0.284   0.334  -0.079
    1UNL    H22   51   0.049   0.396  -0.040
    1UNL    H23   52  -0.287   0.299  -0.046
    1UNL    H24   53  -0.304   0.061  -0.100
    1UNL    H25   54  -0.341   0.125   0.159
    1UNL    H26   55  -0.231  -0.020   0.192
   0.00000   0.00000   0.00000   0.00000   0.00000   0.00000   0.00000   0.00000   0.00000
Generated with MDTraj, t= 26.0
 55
    1UNL     C1    1  -0.637   0.053   0.165
    1UNL     C2    2  -0.555  -0.050   0.084
    1UNL     C3    3  -0.553  -0.031  -0.071
    1UNL     C4    4  -0.420  -0.077   0.148
    1UNL     C5    5  -0.370  -0.209   0.102
    1UNL     C6    6  -0.268  -0.229   0.010
    1UNL     C7    7  -0.192  -0.118  -0.069
    1UNL     C8    8  -0.208  -0.141  -0.218
    1UNL     O1    9  -0.052  -0.119  -0.036
    1UNL     C9   10  -0.005   0.007  -0.023
    1UNL    C10   11   0.127   0.058  -0.024
    1UNL    C11   12   0.236  -0.043  -0.019
    1UNL     O2   13   0.216  -0.161  -0.051
    1UNL    C12   14   0.370   0.004   0.013
    1UNL    C13   15   0.460  -0.094   0.039
    1UNL    C14   16   0.605  -0.061   0.066
    1UNL    C15   17   0.702  -0.161   0.058
    1UNL    C16   18   0.831  -0.130   0.077
    1UNL    C17   19   0.876  -0.008   0.101
    1UNL    C18   20   0.779   0.092   0.108
    1UNL    C19   21   0.647   0.064   0.099
    1UNL    C20   22   0.146   0.201  -0.024
    1UNL     O3   23   0.273   0.254  -0.022
    1UNL    C21   24   0.031   0.282  -0.005
    1UNL    C22   25  -0.098   0.235  -0.011
    1UNL     O4   26  -0.205   0.321   0.007
    1UNL    C23   27  -0.119   0.095  -0.019
    1UNL    C24   28  -0.250   0.022  -0.031
    1UNL    C25   29  -0.330   0.038   0.106
    1UNL     H1   30  -0.621   0.052   0.272
    1UNL     H2   31  -0.745   0.061   0.151
    1UNL     H3   32  -0.597   0.146   0.133
    1UNL     H4   33  -0.609  -0.153   0.092
    1UNL     H5   34  -0.484  -0.095  -0.131
    1UNL     H6   35  -0.514   0.078  -0.076
    1UNL     H7   36  -0.644  -0.048  -0.124
    1UNL     H8   37  -0.426  -0.081   0.262
    1UNL     H9   38  -0.400  -0.299   0.148
    1UNL    H10   39  -0.236  -0.334   0.001
    1UNL    H11   40  -0.313  -0.141  -0.254
    1UNL    H12   41  -0.159  -0.062  -0.272
    1UNL    H13   42  -0.182  -0.247  -0.250
    1UNL    H14   43   0.396   0.112   0.009
    1UNL    H15   44   0.434  -0.199   0.042
    1UNL    H16   45   0.675  -0.263   0.045
    1UNL    H17   46   0.905  -0.206   0.064
    1UNL    H18   47   0.986   0.008   0.118
    1UNL    H19   48   0.805   0.189   0.147
    1UNL    H20   49   0.580   0.145   0.112
    1UNL    H21   50   0.267   0.348  -0.025
    1UNL    H22   51   0.050   0.389  -0.002
    1UNL    H23   52  -0.293   0.278   0.007
    1UNL    H24   53  -0.299   0.083  -0.117
    1UNL    H25   54  -0.396   0.128   0.094
    1UNL    H26   55  -0.248   0.071   0.186
   0.00000   0.00000   0.00000   0.00000   0.00000   0.00000   0.00000   0.00000   0.00000
Generated with MDTraj, t= 27.0
 55
    1UNL     C1    1  -0.625   0.052   0.152
    1UNL     C2    2  -0.555  -0.065   0.086
    1UNL     C3    3  -0.570  -0.060  -0.069
    1UNL     C4    4  -0.414  -0.083   0.135
    1UNL     C5    5  -0.352  -0.219   0.096
    1UNL     C6    6  -0.250  -0.228   0.004
    1UNL     C7    7  -0.201  -0.112  -0.072
    1UNL     C8    8  -0.229  -0.130  -0.218
    1UNL     O1    9  -0.053  -0.107  -0.065
    1UNL     C9   10  -0.012   0.017  -0.043
    1UNL    C10   11   0.124   0.053  -0.022
    1UNL    C11   12   0.229  -0.050   0.005
    1UNL     O2   13   0.202  -0.169   0.013
    1UNL    C12   14   0.366  -0.002   0.025
    1UNL    C13   15   0.466  -0.091   0.042
    1UNL    C14   16   0.601  -0.059   0.053
    1UNL    C15   17   0.695  -0.160   0.068
    1UNL    C16   18   0.825  -0.134   0.077
    1UNL    C17   19   0.868  -0.005   0.080
    1UNL    C18   20   0.782   0.095   0.086
    1UNL    C19   21   0.642   0.074   0.064
    1UNL    C20   22   0.149   0.195   0.004
    1UNL     O3   23   0.273   0.240   0.022
    1UNL    C21   24   0.042   0.287  -0.002
    1UNL    C22   25  -0.091   0.242  -0.015
    1UNL     O4   26  -0.185   0.343  -0.017
    1UNL    C23   27  -0.117   0.109  -0.034
    1UNL    C24   28  -0.249   0.030  -0.027
    1UNL    C25   29  -0.321   0.040   0.108
    1UNL     H1   30  -0.621   0.052   0.260
    1UNL     H2   31  -0.725   0.074   0.121
    1UNL     H3   32  -0.567   0.135   0.112
    1UNL     H4   33  -0.621  -0.158   0.112
    1UNL     H5   34  -0.529  -0.151  -0.111
    1UNL     H6   35  -0.504   0.035  -0.085
    1UNL     H7   36  -0.670  -0.058  -0.113
    1UNL     H8   37  -0.416  -0.091   0.247
    1UNL     H9   38  -0.377  -0.314   0.151
    1UNL    H10   39  -0.196  -0.320  -0.000
    1UNL    H11   40  -0.335  -0.168  -0.240
    1UNL    H12   41  -0.210  -0.037  -0.267
    1UNL    H13   42  -0.173  -0.219  -0.261
    1UNL    H14   43   0.383   0.100   0.006
    1UNL    H15   44   0.449  -0.196   0.059
    1UNL    H16   45   0.671  -0.265   0.059
    1UNL    H17   46   0.898  -0.215   0.086
    1UNL    H18   47   0.971   0.012   0.088
    1UNL    H19   48   0.828   0.193   0.103
    1UNL    H20   49   0.568   0.148   0.087
    1UNL    H21   50   0.257   0.326   0.065
    1UNL    H22   51   0.073   0.387   0.019
    1UNL    H23   52  -0.277   0.312  -0.007
    1UNL    H24   53  -0.322   0.071  -0.107
    1UNL    H25   54  -0.374   0.139   0.121
    1UNL    H26   55  -0.245   0.045   0.198
   0.00000   0.00000   0.00000   0.00000   0.00000   0.00000   0.00000   0.00000   0.00000
Generated with MDTraj, t= 28.0
 55
    1UNL     C1    1  -0.617   0.061   0.138
    1UNL     C2    2  -0.551  -0.069   0.092
    1UNL     C3    3  -0.574  -0.086  -0.056
    1UNL     C4    4  -0.404  -0.074   0.138
    1UNL     C5    5  -0.346  -0.209   0.096
    1UNL     C6    6  -0.256  -0.218  -0.011
    1UNL     C7    7  -0.199  -0.109  -0.087
    1UNL     C8    8  -0.210  -0.122  -0.244
    1UNL     O1    9  -0.054  -0.112  -0.055
    1UNL     C9   10  -0.014   0.016  -0.029
    1UNL    C10   11   0.116   0.053   0.010
    1UNL    C11   12   0.225  -0.053   0.027
    1UNL     O2   13   0.198  -0.170   0.049
    1UNL    C12   14   0.363  -0.008   0.036
    1UNL    C13   15   0.460  -0.100   0.030
    1UNL    C14   16   0.608  -0.070   0.041
    1UNL    C15   17   0.705  -0.166   0.070
    1UNL    C16   18   0.833  -0.129   0.083
    1UNL    C17   19   0.878  -0.002   0.078
    1UNL    C18   20   0.787   0.095   0.054
    1UNL    C19   21   0.656   0.064   0.028
    1UNL    C20   22   0.134   0.193   0.034
    1UNL     O3   23   0.261   0.243   0.053
    1UNL    C21   24   0.029   0.286   0.024
    1UNL    C22   25  -0.104   0.250  -0.023
    1UNL     O4   26  -0.201   0.347  -0.038
    1UNL    C23   27  -0.116   0.110  -0.043
    1UNL    C24   28  -0.245   0.039  -0.043
    1UNL    C25   29  -0.312   0.038   0.095
    1UNL     H1   30  -0.617   0.073   0.246
    1UNL     H2   31  -0.715   0.080   0.104
    1UNL     H3   32  -0.558   0.140   0.087
    1UNL     H4   33  -0.621  -0.149   0.139
    1UNL     H5   34  -0.549  -0.184  -0.093
    1UNL     H6   35  -0.516   0.001  -0.096
    1UNL     H7   36  -0.685  -0.086  -0.086
    1UNL     H8   37  -0.404  -0.072   0.247
    1UNL     H9   38  -0.390  -0.297   0.137
    1UNL    H10   39  -0.233  -0.318  -0.049
    1UNL    H11   40  -0.313  -0.089  -0.278
    1UNL    H12   41  -0.133  -0.051  -0.281
    1UNL    H13   42  -0.207  -0.227  -0.276
    1UNL    H14   43   0.382   0.094   0.042
    1UNL    H15   44   0.422  -0.202   0.017
    1UNL    H16   45   0.682  -0.271   0.058
    1UNL    H17   46   0.906  -0.207   0.092
    1UNL    H18   47   0.989   0.011   0.085
    1UNL    H19   48   0.814   0.200   0.052
    1UNL    H20   49   0.587   0.147   0.003
    1UNL    H21   50   0.257   0.344   0.060
    1UNL    H22   51   0.049   0.391   0.048
    1UNL    H23   52  -0.285   0.300  -0.055
    1UNL    H24   53  -0.309   0.094  -0.119
    1UNL    H25   54  -0.369   0.134   0.114
    1UNL    H26   55  -0.234   0.050   0.178
   0.00000   0.00000   0.00000   0.00000   0.00000   0.00000   0.00000   0.00000   0.00000
Generated with MDTraj, t= 29.0
 55
    1UNL     C1    1  -0.624   0.074   0.139
    1UNL     C2    2  -0.557  -0.054   0.075
    1UNL     C3    3  -0.584  -0.064  -0.074
    1UNL     C4    4  -0.416  -0.081   0.122
    1UNL     C5    5  -0.363  -0.218   0.075
    1UNL     C6    6  -0.255  -0.235  -0.011
    1UNL     C7    7  -0.184  -0.116  -0.078
    1UNL     C8    8  -0.188  -0.142  -0.230
    1UNL     O1    9  -0.046  -0.118  -0.035
    1UNL     C9   10  -0.005   0.016  -0.013
    1UNL    C10   11   0.121   0.062   0.020
    1UNL    C11   12   0.224  -0.039   0.036
    1UNL     O2   13   0.212  -0.159   0.046
    1UNL    C12   14   0.365   0.002   0.032
    1UNL    C13   15   0.461  -0.087   0.044
    1UNL    C14   16   0.598  -0.055   0.049
    1UNL    C15   17   0.685  -0.161   0.083
    1UNL    C16   18   0.822  -0.141   0.078
    1UNL    C17   19   0.868  -0.017   0.050
    1UNL    C18   20   0.786   0.088   0.008
    1UNL    C19   21   0.650   0.069   0.012
    1UNL    C20   22   0.142   0.199   0.036
    1UNL     O3   23   0.254   0.257   0.096
    1UNL    C21   24   0.038   0.289   0.006
    1UNL    C22   25  -0.094   0.244  -0.022
    1UNL     O4   26  -0.200   0.337  -0.021
    1UNL    C23   27  -0.111   0.102  -0.031
    1UNL    C24   28  -0.240   0.023  -0.043
    1UNL    C25   29  -0.317   0.024   0.088
    1UNL     H1   30  -0.581   0.092   0.237
    1UNL     H2   31  -0.729   0.082   0.150
    1UNL     H3   32  -0.600   0.162   0.075
    1UNL     H4   33  -0.620  -0.139   0.121
    1UNL     H5   34  -0.562  -0.158  -0.123
    1UNL     H6   35  -0.527   0.012  -0.116
    1UNL     H7   36  -0.696  -0.053  -0.105
    1UNL     H8   37  -0.419  -0.081   0.231
    1UNL     H9   38  -0.418  -0.312   0.100
    1UNL    H10   39  -0.232  -0.331  -0.054
    1UNL    H11   40  -0.291  -0.167  -0.262
    1UNL    H12   41  -0.149  -0.043  -0.276
    1UNL    H13   42  -0.130  -0.233  -0.243
    1UNL    H14   43   0.393   0.111   0.033
    1UNL    H15   44   0.430  -0.188   0.038
    1UNL    H16   45   0.646  -0.259   0.103
    1UNL    H17   46   0.896  -0.222   0.068
    1UNL    H18   47   0.972  -0.002   0.061
    1UNL    H19   48   0.837   0.181  -0.006
    1UNL    H20   49   0.596   0.147  -0.028
    1UNL    H21   50   0.269   0.359   0.086
    1UNL    H22   51   0.041   0.395   0.002
    1UNL    H23   52  -0.279   0.282  -0.040
    1UNL    H24   53  -0.304   0.060  -0.127
    1UNL    H25   54  -0.356   0.129   0.103
    1UNL    H26   55  -0.239   0.030   0.168
   0.00000   0.00000   0.00000   0.00000   0.00000   0.00000   0.00000   0.00000   0.00000
Generated with MDTraj, t= 30.0
 55
    1UNL     C1    1  -0.650   0.054   0.126
    1UNL     C2    2  -0.565  -0.050   0.053
    1UNL     C3    3  -0.550  -0.016  -0.094
    1UNL     C4    4  -0.433  -0.082   0.116
    1UNL     C5    5  -0.383  -0.218   0.066
    1UNL     C6    6  -0.278  -0.234  -0.020
    1UNL     C7    7  -0.194  -0.123  -0.073
    1UNL     C8    8  -0.183  -0.147  -0.223
    1UNL     O1    9  -0.057  -0.124  -0.013
    1UNL     C9   10  -0.014   0.013   0.006
    1UNL    C10   11   0.114   0.059   0.038
    1UNL    C11   12   0.226  -0.036   0.052
    1UNL     O2   13   0.208  -0.155   0.047
    1UNL    C12   14   0.375   0.006   0.047
    1UNL    C13   15   0.477  -0.081   0.059
    1UNL    C14   16   0.621  -0.055   0.051
    1UNL    C15   17   0.710  -0.154   0.092
    1UNL    C16   18   0.847  -0.142   0.073
    1UNL    C17   19   0.890  -0.024   0.016
    1UNL    C18   20   0.805   0.077  -0.016
    1UNL    C19   21   0.673   0.065  -0.005
    1UNL    C20   22   0.131   0.202   0.050
    1UNL     O3   23   0.254   0.269   0.064
    1UNL    C21   24   0.019   0.284   0.031
    1UNL    C22   25  -0.103   0.235  -0.004
    1UNL     O4   26  -0.209   0.325  -0.035
    1UNL    C23   27  -0.118   0.100  -0.018
    1UNL    C24   28  -0.246   0.021  -0.035
    1UNL    C25   29  -0.325   0.023   0.100
    1UNL     H1   30  -0.657   0.030   0.232
    1UNL     H2   31  -0.752   0.069   0.091
    1UNL     H3   32  -0.604   0.151   0.112
    1UNL     H4   33  -0.620  -0.148   0.066
    1UNL     H5   34  -0.478  -0.081  -0.142
    1UNL     H6   35  -0.508   0.079  -0.103
    1UNL     H7   36  -0.645  -0.022  -0.161
    1UNL     H8   37  -0.440  -0.090   0.223
    1UNL     H9   38  -0.406  -0.314   0.105
    1UNL    H10   39  -0.232  -0.334  -0.020
    1UNL    H11   40  -0.284  -0.162  -0.260
    1UNL    H12   41  -0.144  -0.042  -0.258
    1UNL    H13   42  -0.128  -0.239  -0.244
    1UNL    H14   43   0.395   0.109   0.026
    1UNL    H15   44   0.438  -0.181   0.087
    1UNL    H16   45   0.662  -0.245   0.133
    1UNL    H17   46   0.903  -0.227   0.106
    1UNL    H18   47   0.995   0.007   0.004
    1UNL    H19   48   0.848   0.174  -0.047
    1UNL    H20   49   0.610   0.159  -0.017
    1UNL    H21   50   0.255   0.369   0.059
    1UNL    H22   51   0.035   0.390   0.043
    1UNL    H23   52  -0.266   0.279  -0.101
    1UNL    H24   53  -0.308   0.063  -0.115
    1UNL    H25   54  -0.373   0.123   0.112
    1UNL    H26   55  -0.259   0.027   0.186
   0.00000   0.00000   0.00000   0.00000   0.00000   0.00000   0.00000   0.00000   0.00000
Generated with MDTraj, t= 31.0
 55
    1UNL     C1    1  -0.674   0.031   0.098
    1UNL     C2    2  -0.581  -0.057   0.016
    1UNL     C3    3  -0.553   0.018  -0.117
    1UNL     C4    4  -0.451  -0.091   0.101
    1UNL     C5    5  -0.395  -0.225   0.058
    1UNL     C6    6  -0.266  -0.230   0.008
    1UNL     C7    7  -0.180  -0.117  -0.049
    1UNL     C8    8  -0.174  -0.140  -0.203
    1UNL     O1    9  -0.045  -0.120   0.009
    1UNL     C9   10  -0.006   0.012   0.013
    1UNL    C10   11   0.123   0.059   0.030
    1UNL    C11   12   0.228  -0.038   0.050
    1UNL     O2   13   0.205  -0.154   0.078
    1UNL    C12   14   0.368   0.006   0.044
    1UNL    C13   15   0.467  -0.083   0.058
    1UNL    C14   16   0.607  -0.056   0.045
    1UNL    C15   17   0.698  -0.147   0.088
    1UNL    C16   18   0.837  -0.129   0.071
    1UNL    C17   19   0.888  -0.015   0.003
    1UNL    C18   20   0.796   0.083  -0.032
    1UNL    C19   21   0.662   0.059  -0.015
    1UNL    C20   22   0.151   0.196   0.027
    1UNL     O3   23   0.270   0.258   0.050
    1UNL    C21   24   0.042   0.284   0.008
    1UNL    C22   25  -0.086   0.236  -0.001
    1UNL     O4   26  -0.195   0.323   0.001
    1UNL    C23   27  -0.114   0.101   0.006
    1UNL    C24   28  -0.242   0.018  -0.018
    1UNL    C25   29  -0.338   0.014   0.108
    1UNL     H1   30  -0.722  -0.020   0.182
    1UNL     H2   31  -0.753   0.083   0.040
    1UNL     H3   32  -0.613   0.113   0.127
    1UNL     H4   33  -0.632  -0.153  -0.002
    1UNL     H5   34  -0.482  -0.034  -0.178
    1UNL     H6   35  -0.506   0.110  -0.087
    1UNL     H7   36  -0.650   0.048  -0.170
    1UNL     H8   37  -0.467  -0.107   0.207
    1UNL     H9   38  -0.443  -0.320   0.091
    1UNL    H10   39  -0.226  -0.329  -0.010
    1UNL    H11   40  -0.266  -0.104  -0.252
    1UNL    H12   41  -0.089  -0.076  -0.242
    1UNL    H13   42  -0.169  -0.248  -0.226
    1UNL    H14   43   0.383   0.104   0.015
    1UNL    H15   44   0.432  -0.173   0.099
    1UNL    H16   45   0.663  -0.240   0.123
    1UNL    H17   46   0.918  -0.187   0.119
    1UNL    H18   47   0.991  -0.009  -0.034
    1UNL    H19   48   0.828   0.179  -0.064
    1UNL    H20   49   0.606   0.144  -0.035
    1UNL    H21   50   0.247   0.343   0.087
    1UNL    H22   51   0.069   0.388   0.015
    1UNL    H23   52  -0.274   0.272  -0.031
    1UNL    H24   53  -0.295   0.063  -0.100
    1UNL    H25   54  -0.385   0.112   0.123
    1UNL    H26   55  -0.284  -0.002   0.197
   0.00000   0.00000   0.00000   0.00000   0.00000   0.00000   0.00000   0.00000   0.00000
Generated with MDTraj, t= 32.0
 55
    1UNL     C1    1  -0.680   0.031   0.075
    1UNL     C2    2  -0.569  -0.056   0.004
    1UNL     C3    3  -0.538  -0.001  -0.136
    1UNL     C4    4  -0.444  -0.078   0.095
    1UNL     C5    5  -0.375  -0.218   0.081
    1UNL     C6    6  -0.260  -0.234   0.006
    1UNL     C7    7  -0.186  -0.116  -0.053
    1UNL     C8    8  -0.153  -0.123  -0.203
    1UNL     O1    9  -0.062  -0.118   0.016
    1UNL     C9   10  -0.016   0.008   0.028
    1UNL    C10   11   0.119   0.055   0.047
    1UNL    C11   12   0.231  -0.047   0.075
    1UNL     O2   13   0.201  -0.161   0.106
    1UNL    C12   14   0.367  -0.010   0.044
    1UNL    C13   15   0.469  -0.096   0.052
    1UNL    C14   16   0.608  -0.061   0.033
    1UNL    C15   17   0.710  -0.154   0.070
    1UNL    C16   18   0.843  -0.120   0.069
    1UNL    C17   19   0.880   0.003   0.011
    1UNL    C18   20   0.783   0.086  -0.045
    1UNL    C19   21   0.647   0.056  -0.035
    1UNL    C20   22   0.150   0.192   0.042
    1UNL     O3   23   0.279   0.243   0.014
    1UNL    C21   24   0.040   0.278   0.039
    1UNL    C22   25  -0.096   0.242   0.023
    1UNL     O4   26  -0.204   0.323   0.007
    1UNL    C23   27  -0.117   0.103   0.014
    1UNL    C24   28  -0.236   0.033  -0.022
    1UNL    C25   29  -0.345   0.039   0.097
    1UNL     H1   30  -0.709  -0.012   0.173
    1UNL     H2   31  -0.778   0.058   0.026
    1UNL     H3   32  -0.636   0.126   0.089
    1UNL     H4   33  -0.616  -0.153  -0.004
    1UNL     H5   34  -0.461  -0.059  -0.183
    1UNL     H6   35  -0.498   0.102  -0.119
    1UNL     H7   36  -0.634   0.012  -0.181
    1UNL     H8   37  -0.475  -0.078   0.199
    1UNL     H9   38  -0.437  -0.300   0.110
    1UNL    H10   39  -0.209  -0.329  -0.004
    1UNL    H11   40  -0.236  -0.165  -0.267
    1UNL    H12   41  -0.122  -0.028  -0.246
    1UNL    H13   42  -0.077  -0.204  -0.218
    1UNL    H14   43   0.373   0.098   0.027
    1UNL    H15   44   0.439  -0.202   0.071
    1UNL    H16   45   0.667  -0.247   0.110
    1UNL    H17   46   0.917  -0.194   0.087
    1UNL    H18   47   0.980   0.035   0.012
    1UNL    H19   48   0.800   0.184  -0.090
    1UNL    H20   49   0.571   0.118  -0.082
    1UNL    H21   50   0.279   0.334   0.037
    1UNL    H22   51   0.063   0.382   0.043
    1UNL    H23   52  -0.285   0.275  -0.025
    1UNL    H24   53  -0.281   0.073  -0.108
    1UNL    H25   54  -0.407   0.129   0.095
    1UNL    H26   55  -0.292   0.041   0.187
   0.00000   0.00000   0.00000   0.00000   0.00000   0.00000   0.00000   0.00000   0.00000
Generated with MDTraj, t= 33.0
 55
    1UNL     C1    1  -0.657   0.065   0.054
    1UNL     C2    2  -0.579  -0.058   0.005
    1UNL     C3    3  -0.542  -0.046  -0.144
    1UNL     C4    4  -0.456  -0.091   0.095
    1UNL     C5    5  -0.383  -0.223   0.075
    1UNL     C6    6  -0.265  -0.228   0.011
    1UNL     C7    7  -0.188  -0.117  -0.049
    1UNL     C8    8  -0.174  -0.134  -0.197
    1UNL     O1    9  -0.050  -0.116   0.017
    1UNL     C9   10  -0.010   0.017   0.026
    1UNL    C10   11   0.126   0.062   0.046
    1UNL    C11   12   0.227  -0.041   0.072
    1UNL     O2   13   0.208  -0.155   0.107
    1UNL    C12   14   0.366  -0.008   0.052
    1UNL    C13   15   0.467  -0.102   0.050
    1UNL    C14   16   0.609  -0.064   0.027
    1UNL    C15   17   0.708  -0.151   0.069
    1UNL    C16   18   0.840  -0.122   0.057
    1UNL    C17   19   0.874   0.005  -0.003
    1UNL    C18   20   0.774   0.091  -0.059
    1UNL    C19   21   0.639   0.057  -0.034
    1UNL    C20   22   0.153   0.200   0.044
    1UNL     O3   23   0.280   0.238   0.078
    1UNL    C21   24   0.047   0.288   0.030
    1UNL    C22   25  -0.090   0.244   0.007
    1UNL     O4   26  -0.182   0.339   0.002
    1UNL    C23   27  -0.121   0.104   0.015
    1UNL    C24   28  -0.243   0.027  -0.021
    1UNL    C25   29  -0.349   0.019   0.103
    1UNL     H1   30  -0.665   0.066   0.164
    1UNL     H2   31  -0.760   0.088   0.017
    1UNL     H3   32  -0.597   0.150   0.022
    1UNL     H4   33  -0.647  -0.136   0.028
    1UNL     H5   34  -0.472  -0.128  -0.166
    1UNL     H6   35  -0.473   0.044  -0.157
    1UNL     H7   36  -0.626  -0.033  -0.201
    1UNL     H8   37  -0.491  -0.096   0.199
    1UNL     H9   38  -0.426  -0.319   0.109
    1UNL    H10   39  -0.222  -0.324  -0.010
    1UNL    H11   40  -0.264  -0.122  -0.267
    1UNL    H12   41  -0.102  -0.070  -0.238
    1UNL    H13   42  -0.148  -0.242  -0.222
    1UNL    H14   43   0.387   0.098   0.033
    1UNL    H15   44   0.442  -0.204   0.053
    1UNL    H16   45   0.682  -0.247   0.107
    1UNL    H17   46   0.915  -0.196   0.093
    1UNL    H18   47   0.982   0.038   0.008
    1UNL    H19   48   0.805   0.186  -0.099
    1UNL    H20   49   0.559   0.127  -0.069
    1UNL    H21   50   0.280   0.336   0.072
    1UNL    H22   51   0.054   0.395   0.034
    1UNL    H23   52  -0.272   0.303   0.019
    1UNL    H24   53  -0.291   0.065  -0.107
    1UNL    H25   54  -0.391   0.116   0.106
    1UNL    H26   55  -0.300  -0.001   0.195
   0.00000   0.00000   0.00000   0.00000   0.00000   0.00000   0.00000   0.00000   0.00000
Generated with MDTraj, t= 34.0
 55
    1UNL     C1    1  -0.614   0.100   0.023
    1UNL     C2    2  -0.565  -0.044   0.025
    1UNL     C3    3  -0.540  -0.082  -0.122
    1UNL     C4    4  -0.443  -0.071   0.108
    1UNL     C5    5  -0.388  -0.209   0.083
    1UNL     C6    6  -0.278  -0.227   0.009
    1UNL     C7    7  -0.186  -0.120  -0.063
    1UNL     C8    8  -0.174  -0.149  -0.209
    1UNL     O1    9  -0.053  -0.123  -0.010
    1UNL     C9   10  -0.010   0.008   0.023
    1UNL    C10   11   0.119   0.053   0.066
    1UNL    C11   12   0.228  -0.040   0.068
    1UNL     O2   13   0.214  -0.157   0.093
    1UNL    C12   14   0.365   0.007   0.047
    1UNL    C13   15   0.468  -0.085   0.051
    1UNL    C14   16   0.606  -0.060   0.029
    1UNL    C15   17   0.703  -0.150   0.074
    1UNL    C16   18   0.838  -0.126   0.043
    1UNL    C17   19   0.872  -0.012  -0.032
    1UNL    C18   20   0.781   0.094  -0.060
    1UNL    C19   21   0.647   0.064  -0.024
    1UNL    C20   22   0.129   0.196   0.092
    1UNL     O3   23   0.255   0.244   0.119
    1UNL    C21   24   0.027   0.278   0.056
    1UNL    C22   25  -0.096   0.235   0.013
    1UNL     O4   26  -0.200   0.322  -0.021
    1UNL    C23   27  -0.111   0.101   0.002
    1UNL    C24   28  -0.235   0.024  -0.032
    1UNL    C25   29  -0.333   0.035   0.096
    1UNL     H1   30  -0.647   0.133   0.122
    1UNL     H2   31  -0.702   0.114  -0.042
    1UNL     H3   32  -0.536   0.166  -0.021
    1UNL     H4   33  -0.637  -0.099   0.079
    1UNL     H5   34  -0.487  -0.178  -0.138
    1UNL     H6   35  -0.461  -0.018  -0.159
    1UNL     H7   36  -0.621  -0.071  -0.186
    1UNL     H8   37  -0.470  -0.064   0.216
    1UNL     H9   38  -0.408  -0.290   0.149
    1UNL    H10   39  -0.231  -0.324   0.010
    1UNL    H11   40  -0.269  -0.138  -0.267
    1UNL    H12   41  -0.108  -0.084  -0.264
    1UNL    H13   42  -0.144  -0.256  -0.229
    1UNL    H14   43   0.381   0.103   0.013
    1UNL    H15   44   0.449  -0.190   0.078
    1UNL    H16   45   0.668  -0.244   0.117
    1UNL    H17   46   0.909  -0.191   0.085
    1UNL    H18   47   0.972  -0.011  -0.056
    1UNL    H19   48   0.800   0.186  -0.116
    1UNL    H20   49   0.573   0.136  -0.026
    1UNL    H21   50   0.272   0.344   0.103
    1UNL    H22   51   0.036   0.383   0.083
    1UNL    H23   52  -0.278   0.266  -0.034
    1UNL    H24   53  -0.273   0.068  -0.119
    1UNL    H25   54  -0.381   0.127   0.100
    1UNL    H26   55  -0.267   0.027   0.178
   0.00000   0.00000   0.00000   0.00000   0.00000   0.00000   0.00000   0.00000   0.00000
Generated with MDTraj, t= 35.0
 55
    1UNL     C1    1  -0.599   0.106   0.004
    1UNL     C2    2  -0.569  -0.041   0.013
    1UNL     C3    3  -0.555  -0.095  -0.122
    1UNL     C4    4  -0.437  -0.063   0.107
    1UNL     C5    5  -0.380  -0.206   0.093
    1UNL     C6    6  -0.264  -0.225   0.031
    1UNL     C7    7  -0.184  -0.123  -0.056
    1UNL     C8    8  -0.186  -0.171  -0.198
    1UNL     O1    9  -0.043  -0.120  -0.022
    1UNL     C9   10  -0.009   0.017   0.005
    1UNL    C10   11   0.113   0.055   0.065
    1UNL    C11   12   0.224  -0.036   0.075
    1UNL     O2   13   0.206  -0.155   0.087
    1UNL    C12   14   0.363   0.005   0.073
    1UNL    C13   15   0.464  -0.086   0.058
    1UNL    C14   16   0.611  -0.054   0.034
    1UNL    C15   17   0.706  -0.151   0.053
    1UNL    C16   18   0.841  -0.130   0.025
    1UNL    C17   19   0.882  -0.011  -0.039
    1UNL    C18   20   0.780   0.091  -0.055
    1UNL    C19   21   0.649   0.066  -0.017
    1UNL    C20   22   0.133   0.192   0.092
    1UNL     O3   23   0.244   0.239   0.151
    1UNL    C21   24   0.030   0.279   0.048
    1UNL    C22   25  -0.094   0.238   0.003
    1UNL     O4   26  -0.199   0.326  -0.007
    1UNL    C23   27  -0.116   0.105  -0.015
    1UNL    C24   28  -0.244   0.020  -0.032
    1UNL    C25   29  -0.329   0.039   0.096
    1UNL     H1   30  -0.620   0.141   0.106
    1UNL     H2   31  -0.689   0.130  -0.052
    1UNL     H3   32  -0.515   0.161  -0.051
    1UNL     H4   33  -0.647  -0.091   0.061
    1UNL     H5   34  -0.519  -0.197  -0.137
    1UNL     H6   35  -0.482  -0.042  -0.172
    1UNL     H7   36  -0.647  -0.076  -0.177
    1UNL     H8   37  -0.469  -0.056   0.215
    1UNL     H9   38  -0.443  -0.290   0.121
    1UNL    H10   39  -0.218  -0.322   0.021
    1UNL    H11   40  -0.283  -0.209  -0.236
    1UNL    H12   41  -0.169  -0.084  -0.268
    1UNL    H13   42  -0.111  -0.251  -0.214
    1UNL    H14   43   0.393   0.111   0.072
    1UNL    H15   44   0.446  -0.192   0.063
    1UNL    H16   45   0.666  -0.238   0.097
    1UNL    H17   46   0.906  -0.220   0.037
    1UNL    H18   47   0.983  -0.002  -0.092
    1UNL    H19   48   0.806   0.183  -0.102
    1UNL    H20   49   0.570   0.144  -0.041
    1UNL    H21   50   0.244   0.340   0.164
    1UNL    H22   51   0.043   0.384   0.053
    1UNL    H23   52  -0.272   0.279  -0.052
    1UNL    H24   53  -0.294   0.052  -0.118
    1UNL    H25   54  -0.372   0.133   0.092
    1UNL    H26   55  -0.263   0.033   0.178
   0.00000   0.00000   0.00000   0.00000   0.00000   0.00000   0.00000   0.00000   0.00000
Generated with MDTraj, t= 36.0
 55
    1UNL     C1    1  -0.634   0.082   0.006
    1UNL     C2    2  -0.569  -0.056   0.007
    1UNL     C3    3  -0.528  -0.100  -0.141
    1UNL     C4    4  -0.445  -0.059   0.104
    1UNL     C5    5  -0.375  -0.199   0.107
    1UNL     C6    6  -0.268  -0.218   0.034
    1UNL     C7    7  -0.187  -0.121  -0.048
    1UNL     C8    8  -0.177  -0.152  -0.200
    1UNL     O1    9  -0.048  -0.125  -0.002
    1UNL     C9   10  -0.009   0.010   0.018
    1UNL    C10   11   0.115   0.055   0.062
    1UNL    C11   12   0.226  -0.046   0.085
    1UNL     O2   13   0.198  -0.166   0.095
    1UNL    C12   14   0.359  -0.001   0.058
    1UNL    C13   15   0.462  -0.084   0.055
    1UNL    C14   16   0.600  -0.056   0.030
    1UNL    C15   17   0.700  -0.160   0.028
    1UNL    C16   18   0.837  -0.134   0.003
    1UNL    C17   19   0.872   0.002  -0.016
    1UNL    C18   20   0.771   0.100  -0.036
    1UNL    C19   21   0.639   0.072  -0.008
    1UNL    C20   22   0.144   0.189   0.080
    1UNL     O3   23   0.269   0.238   0.114
    1UNL    C21   24   0.034   0.279   0.061
    1UNL    C22   25  -0.089   0.242   0.011
    1UNL     O4   26  -0.185   0.331  -0.012
    1UNL    C23   27  -0.107   0.105  -0.010
    1UNL    C24   28  -0.238   0.033  -0.022
    1UNL    C25   29  -0.339   0.049   0.092
    1UNL     H1   30  -0.646   0.120   0.109
    1UNL     H2   31  -0.733   0.094  -0.039
    1UNL     H3   32  -0.566   0.147  -0.059
    1UNL     H4   33  -0.634  -0.129   0.041
    1UNL     H5   34  -0.462  -0.183  -0.148
    1UNL     H6   35  -0.475  -0.024  -0.190
    1UNL     H7   36  -0.620  -0.118  -0.201
    1UNL     H8   37  -0.494  -0.049   0.204
    1UNL     H9   38  -0.432  -0.278   0.150
    1UNL    H10   39  -0.233  -0.317   0.014
    1UNL    H11   40  -0.262  -0.121  -0.261
    1UNL    H12   41  -0.089  -0.088  -0.242
    1UNL    H13   42  -0.157  -0.259  -0.204
    1UNL    H14   43   0.388   0.103   0.054
    1UNL    H15   44   0.446  -0.192   0.063
    1UNL    H16   45   0.665  -0.255   0.067
    1UNL    H17   46   0.904  -0.216   0.006
    1UNL    H18   47   0.972   0.030  -0.028
    1UNL    H19   48   0.807   0.200  -0.062
    1UNL    H20   49   0.565   0.145  -0.025
    1UNL    H21   50   0.267   0.336   0.118
    1UNL    H22   51   0.055   0.382   0.096
    1UNL    H23   52  -0.248   0.296  -0.079
    1UNL    H24   53  -0.294   0.063  -0.110
    1UNL    H25   54  -0.387   0.141   0.075
    1UNL    H26   55  -0.288   0.061   0.183
   0.00000   0.00000   0.00000   0.00000   0.00000   0.00000   0.00000   0.00000   0.00000
Generated with MDTraj, t= 37.0
 55
    1UNL     C1    1  -0.676   0.048   0.019
    1UNL     C2    2  -0.579  -0.062  -0.009
    1UNL     C3    3  -0.529  -0.068  -0.161
    1UNL     C4    4  -0.462  -0.067   0.090
    1UNL     C5    5  -0.391  -0.207   0.093
    1UNL     C6    6  -0.270  -0.224   0.046
    1UNL     C7    7  -0.185  -0.118  -0.033
    1UNL     C8    8  -0.164  -0.145  -0.181
    1UNL     O1    9  -0.054  -0.116   0.028
    1UNL     C9   10  -0.007   0.013   0.032
    1UNL    C10   11   0.125   0.062   0.060
    1UNL    C11   12   0.231  -0.044   0.076
    1UNL     O2   13   0.199  -0.157   0.110
    1UNL    C12   14   0.365  -0.019   0.057
    1UNL    C13   15   0.463  -0.105   0.040
    1UNL    C14   16   0.608  -0.068   0.017
    1UNL    C15   17   0.705  -0.169   0.008
    1UNL    C16   18   0.836  -0.127  -0.010
    1UNL    C17   19   0.874   0.010  -0.011
    1UNL    C18   20   0.775   0.107   0.000
    1UNL    C19   21   0.647   0.066   0.005
    1UNL    C20   22   0.156   0.200   0.054
    1UNL     O3   23   0.283   0.247   0.081
    1UNL    C21   24   0.046   0.284   0.040
    1UNL    C22   25  -0.086   0.242   0.017
    1UNL     O4   26  -0.180   0.337  -0.005
    1UNL    C23   27  -0.112   0.104   0.015
    1UNL    C24   28  -0.237   0.031  -0.021
    1UNL    C25   29  -0.350   0.046   0.083
    1UNL     H1   30  -0.685   0.051   0.130
    1UNL     H2   31  -0.777   0.042  -0.025
    1UNL     H3   32  -0.633   0.145  -0.016
    1UNL     H4   33  -0.633  -0.150   0.002
    1UNL     H5   34  -0.475  -0.152  -0.181
    1UNL     H6   35  -0.455   0.012  -0.178
    1UNL     H7   36  -0.614  -0.053  -0.230
    1UNL     H8   37  -0.526  -0.058   0.181
    1UNL     H9   38  -0.440  -0.275   0.163
    1UNL    H10   39  -0.216  -0.318   0.059
    1UNL    H11   40  -0.261  -0.155  -0.229
    1UNL    H12   41  -0.118  -0.047  -0.220
    1UNL    H13   42  -0.098  -0.232  -0.183
    1UNL    H14   43   0.396   0.079   0.065
    1UNL    H15   44   0.434  -0.209   0.040
    1UNL    H16   45   0.670  -0.269   0.028
    1UNL    H17   46   0.913  -0.205   0.007
    1UNL    H18   47   0.981   0.029  -0.004
    1UNL    H19   48   0.794   0.210  -0.014
    1UNL    H20   49   0.572   0.141   0.018
    1UNL    H21   50   0.277   0.340   0.065
    1UNL    H22   51   0.071   0.386   0.047
    1UNL    H23   52  -0.261   0.286  -0.024
    1UNL    H24   53  -0.273   0.065  -0.121
    1UNL    H25   54  -0.398   0.140   0.069
    1UNL    H26   55  -0.307   0.055   0.177
   0.00000   0.00000   0.00000   0.00000   0.00000   0.00000   0.00000   0.00000   0.00000
Generated with MDTraj, t= 38.0
 55
    1UNL     C1    1  -0.679   0.053   0.043
    1UNL     C2    2  -0.581  -0.057  -0.011
    1UNL     C3    3  -0.523  -0.029  -0.155
    1UNL     C4    4  -0.461  -0.069   0.087
    1UNL     C5    5  -0.397  -0.207   0.086
    1UNL     C6    6  -0.281  -0.225   0.032
    1UNL     C7    7  -0.180  -0.129  -0.032
    1UNL     C8    8  -0.155  -0.159  -0.180
    1UNL     O1    9  -0.056  -0.125   0.047
    1UNL     C9   10  -0.011   0.010   0.050
    1UNL    C10   11   0.125   0.054   0.068
    1UNL    C11   12   0.230  -0.038   0.068
    1UNL     O2   13   0.213  -0.152   0.108
    1UNL    C12   14   0.367   0.004   0.041
    1UNL    C13   15   0.471  -0.080   0.045
    1UNL    C14   16   0.610  -0.054   0.023
    1UNL    C15   17   0.697  -0.162   0.003
    1UNL    C16   18   0.833  -0.143  -0.019
    1UNL    C17   19   0.878  -0.009  -0.018
    1UNL    C18   20   0.803   0.098   0.023
    1UNL    C19   21   0.665   0.075   0.037
    1UNL    C20   22   0.144   0.194   0.051
    1UNL     O3   23   0.270   0.252   0.055
    1UNL    C21   24   0.038   0.277   0.025
    1UNL    C22   25  -0.092   0.231   0.016
    1UNL     O4   26  -0.187   0.329  -0.009
    1UNL    C23   27  -0.115   0.097   0.017
    1UNL    C24   28  -0.236   0.017  -0.026
    1UNL    C25   29  -0.355   0.039   0.074
    1UNL     H1   30  -0.742   0.006   0.123
    1UNL     H2   31  -0.747   0.087  -0.039
    1UNL     H3   32  -0.629   0.141   0.080
    1UNL     H4   33  -0.631  -0.147  -0.023
    1UNL     H5   34  -0.451  -0.092  -0.206
    1UNL     H6   35  -0.466   0.067  -0.148
    1UNL     H7   36  -0.603  -0.003  -0.222
    1UNL     H8   37  -0.517  -0.054   0.181
    1UNL     H9   38  -0.449  -0.287   0.136
    1UNL    H10   39  -0.223  -0.310   0.063
    1UNL    H11   40  -0.258  -0.166  -0.227
    1UNL    H12   41  -0.102  -0.076  -0.229
    1UNL    H13   42  -0.102  -0.258  -0.179
    1UNL    H14   43   0.392   0.109   0.033
    1UNL    H15   44   0.452  -0.183   0.059
    1UNL    H16   45   0.656  -0.260   0.012
    1UNL    H17   46   0.904  -0.222  -0.022
    1UNL    H18   47   0.981   0.011  -0.054
    1UNL    H19   48   0.854   0.197   0.034
    1UNL    H20   49   0.603   0.166   0.039
    1UNL    H21   50   0.250   0.348   0.053
    1UNL    H22   51   0.048   0.384   0.025
    1UNL    H23   52  -0.280   0.296  -0.002
    1UNL    H24   53  -0.257   0.057  -0.132
    1UNL    H25   54  -0.412   0.127   0.050
    1UNL    H26   55  -0.324   0.051   0.171
   0.00000   0.00000   0.00000   0.00000   0.00000   0.00000   0.00000   0.00000   0.00000
Generated with MDTraj, t= 39.0
 55
    1UNL     C1    1  -0.660   0.070   0.055
    1UNL     C2    2  -0.577  -0.038   0.003
    1UNL     C3    3  -0.533  -0.007  -0.142
    1UNL     C4    4  -0.447  -0.076   0.097
    1UNL     C5    5  -0.393  -0.221   0.074
    1UNL     C6    6  -0.271  -0.241   0.037
    1UNL     C7    7  -0.181  -0.133  -0.039
    1UNL     C8    8  -0.165  -0.171  -0.184
    1UNL     O1    9  -0.049  -0.128   0.028
    1UNL     C9   10  -0.009   0.006   0.028
    1UNL    C10   11   0.119   0.062   0.058
    1UNL    C11   12   0.228  -0.027   0.074
    1UNL     O2   13   0.205  -0.149   0.089
    1UNL    C12   14   0.369   0.012   0.063
    1UNL    C13   15   0.470  -0.080   0.065
    1UNL    C14   16   0.615  -0.059   0.040
    1UNL    C15   17   0.702  -0.160  -0.002
    1UNL    C16   18   0.835  -0.142  -0.033
    1UNL    C17   19   0.888  -0.017  -0.015
    1UNL    C18   20   0.806   0.083   0.028
    1UNL    C19   21   0.672   0.067   0.058
    1UNL    C20   22   0.130   0.207   0.047
    1UNL     O3   23   0.255   0.275   0.068
    1UNL    C21   24   0.025   0.284   0.021
    1UNL    C22   25  -0.098   0.234  -0.005
    1UNL     O4   26  -0.208   0.314  -0.036
    1UNL    C23   27  -0.116   0.095  -0.003
    1UNL    C24   28  -0.233   0.011  -0.018
    1UNL    C25   29  -0.332   0.027   0.100
    1UNL     H1   30  -0.669   0.052   0.166
    1UNL     H2   31  -0.764   0.063   0.009
    1UNL     H3   32  -0.618   0.165   0.033
    1UNL     H4   33  -0.635  -0.125  -0.009
    1UNL     H5   34  -0.464  -0.086  -0.189
    1UNL     H6   35  -0.463   0.078  -0.149
    1UNL     H7   36  -0.605   0.015  -0.216
    1UNL     H8   37  -0.496  -0.077   0.193
    1UNL     H9   38  -0.453  -0.302   0.114
    1UNL    H10   39  -0.229  -0.341   0.031
    1UNL    H11   40  -0.256  -0.155  -0.252
    1UNL    H12   41  -0.095  -0.101  -0.225
    1UNL    H13   42  -0.120  -0.278  -0.185
    1UNL    H14   43   0.394   0.121   0.063
    1UNL    H15   44   0.437  -0.186   0.069
    1UNL    H16   45   0.664  -0.262   0.012
    1UNL    H17   46   0.890  -0.225  -0.078
    1UNL    H18   47   0.986   0.006  -0.035
    1UNL    H19   48   0.837   0.183   0.027
    1UNL    H20   49   0.615   0.154   0.071
    1UNL    H21   50   0.257   0.378   0.071
    1UNL    H22   51   0.031   0.394   0.025
    1UNL    H23   52  -0.296   0.269  -0.031
    1UNL    H24   53  -0.283   0.042  -0.120
    1UNL    H25   54  -0.378   0.125   0.101
    1UNL    H26   55  -0.281   0.016   0.189
   0.00000   0.00000   0.00000   0.00000   0.00000   0.00000   0.00000   0.00000   0.00000
Generated with MDTraj, t= 40.0
 55
    1UNL     C1    1  -0.655   0.073   0.079
    1UNL     C2    2  -0.568  -0.053   0.044
    1UNL     C3    3  -0.557  -0.048  -0.113
    1UNL     C4    4  -0.426  -0.073   0.113
    1UNL     C5    5  -0.374  -0.213   0.080
    1UNL     C6    6  -0.267  -0.232   0.014
    1UNL     C7    7  -0.180  -0.128  -0.054
    1UNL     C8    8  -0.158  -0.155  -0.199
    1UNL     O1    9  -0.049  -0.120   0.007
    1UNL     C9   10  -0.007   0.008   0.009
    1UNL    C10   11   0.120   0.059   0.047
    1UNL    C11   12   0.220  -0.033   0.074
    1UNL     O2   13   0.203  -0.156   0.093
    1UNL    C12   14   0.362   0.006   0.067
    1UNL    C13   15   0.461  -0.085   0.066
    1UNL    C14   16   0.601  -0.051   0.036
    1UNL    C15   17   0.680  -0.157  -0.006
    1UNL    C16   18   0.817  -0.133  -0.027
    1UNL    C17   19   0.877  -0.019   0.014
    1UNL    C18   20   0.797   0.090   0.041
    1UNL    C19   21   0.662   0.071   0.056
    1UNL    C20   22   0.142   0.196   0.049
    1UNL     O3   23   0.262   0.259   0.092
    1UNL    C21   24   0.032   0.281   0.017
    1UNL    C22   25  -0.089   0.238  -0.025
    1UNL     O4   26  -0.188   0.326  -0.056
    1UNL    C23   27  -0.114   0.096  -0.030
    1UNL    C24   28  -0.242   0.017  -0.032
    1UNL    C25   29  -0.321   0.037   0.098
    1UNL     H1   30  -0.669   0.071   0.189
    1UNL     H2   31  -0.757   0.083   0.033
    1UNL     H3   32  -0.598   0.163   0.057
    1UNL     H4   33  -0.619  -0.145   0.059
    1UNL     H5   34  -0.488  -0.119  -0.173
    1UNL     H6   35  -0.527   0.049  -0.150
    1UNL     H7   36  -0.653  -0.060  -0.158
    1UNL     H8   37  -0.459  -0.076   0.214
    1UNL     H9   38  -0.439  -0.298   0.106
    1UNL    H10   39  -0.248  -0.329  -0.027
    1UNL    H11   40  -0.253  -0.165  -0.259
    1UNL    H12   41  -0.110  -0.074  -0.255
    1UNL    H13   42  -0.093  -0.250  -0.211
    1UNL    H14   43   0.387   0.109   0.066
    1UNL    H15   44   0.433  -0.186   0.076
    1UNL    H16   45   0.646  -0.258  -0.013
    1UNL    H17   46   0.886  -0.211  -0.059
    1UNL    H18   47   0.990  -0.009   0.006
    1UNL    H19   48   0.843   0.190   0.030
    1UNL    H20   49   0.605   0.159   0.095
    1UNL    H21   50   0.251   0.357   0.069
    1UNL    H22   51   0.033   0.385   0.021
    1UNL    H23   52  -0.271   0.282  -0.088
    1UNL    H24   53  -0.308   0.050  -0.122
    1UNL    H25   54  -0.376   0.130   0.101
    1UNL    H26   55  -0.249   0.033   0.174
   0.00000   0.00000   0.00000   0.00000   0.00000   0.00000   0.00000   0.00000   0.00000
Generated with MDTraj, t= 41.0
 55
    1UNL     C1    1  -0.638   0.061   0.104
    1UNL     C2    2  -0.567  -0.064   0.069
    1UNL     C3    3  -0.581  -0.076  -0.081
    1UNL     C4    4  -0.420  -0.072   0.119
    1UNL     C5    5  -0.355  -0.208   0.087
    1UNL     C6    6  -0.265  -0.223  -0.004
    1UNL     C7    7  -0.181  -0.117  -0.075
    1UNL     C8    8  -0.181  -0.141  -0.219
    1UNL     O1    9  -0.042  -0.114  -0.020
    1UNL     C9   10  -0.007   0.012   0.004
    1UNL    C10   11   0.117   0.057   0.046
    1UNL    C11   12   0.226  -0.043   0.070
    1UNL     O2   13   0.197  -0.156   0.116
    1UNL    C12   14   0.366  -0.010   0.050
    1UNL    C13   15   0.464  -0.100   0.043
    1UNL    C14   16   0.605  -0.068   0.041
    1UNL    C15   17   0.699  -0.168   0.004
    1UNL    C16   18   0.828  -0.129  -0.005
    1UNL    C17   19   0.863  -0.002   0.016
    1UNL    C18   20   0.779   0.097   0.062
    1UNL    C19   21   0.648   0.064   0.074
    1UNL    C20   22   0.136   0.201   0.051
    1UNL     O3   23   0.266   0.242   0.086
    1UNL    C21   24   0.036   0.290   0.010
    1UNL    C22   25  -0.090   0.247  -0.030
    1UNL     O4   26  -0.188   0.337  -0.067
    1UNL    C23   27  -0.106   0.108  -0.029
    1UNL    C24   28  -0.230   0.030  -0.045
    1UNL    C25   29  -0.335   0.048   0.072
    1UNL     H1   30  -0.627   0.071   0.212
    1UNL     H2   31  -0.747   0.066   0.083
    1UNL     H3   32  -0.583   0.143   0.051
    1UNL     H4   33  -0.618  -0.152   0.105
    1UNL     H5   34  -0.538  -0.173  -0.113
    1UNL     H6   35  -0.540   0.005  -0.137
    1UNL     H7   36  -0.692  -0.080  -0.100
    1UNL     H8   37  -0.434  -0.068   0.224
    1UNL     H9   38  -0.398  -0.286   0.143
    1UNL    H10   39  -0.216  -0.320  -0.012
    1UNL    H11   40  -0.288  -0.140  -0.250
    1UNL    H12   41  -0.140  -0.060  -0.291
    1UNL    H13   42  -0.134  -0.236  -0.252
    1UNL    H14   43   0.382   0.094   0.062
    1UNL    H15   44   0.436  -0.207   0.044
    1UNL    H16   45   0.673  -0.270  -0.027
    1UNL    H17   46   0.901  -0.205  -0.022
    1UNL    H18   47   0.956   0.034  -0.013
    1UNL    H19   48   0.815   0.197   0.070
    1UNL    H20   49   0.576   0.131   0.107
    1UNL    H21   50   0.272   0.339   0.073
    1UNL    H22   51   0.071   0.397   0.014
    1UNL    H23   52  -0.260   0.304  -0.126
    1UNL    H24   53  -0.279   0.061  -0.143
    1UNL    H25   54  -0.404   0.123   0.042
    1UNL    H26   55  -0.287   0.080   0.163
   0.00000   0.00000   0.00000   0.00000   0.00000   0.00000   0.00000   0.00000   0.00000
Generated with MDTraj, t= 42.0
 55
    1UNL     C1    1  -0.631   0.059   0.130
    1UNL     C2    2  -0.561  -0.064   0.079
    1UNL     C3    3  -0.581  -0.069  -0.076
    1UNL     C4    4  -0.415  -0.074   0.115
    1UNL     C5    5  -0.356  -0.211   0.089
    1UNL     C6    6  -0.261  -0.228   0.003
    1UNL     C7    7  -0.188  -0.121  -0.077
    1UNL     C8    8  -0.207  -0.151  -0.224
    1UNL     O1    9  -0.046  -0.110  -0.037
    1UNL     C9   10  -0.010   0.018  -0.019
    1UNL    C10   11   0.118   0.055   0.020
    1UNL    C11   12   0.220  -0.045   0.056
    1UNL     O2   13   0.197  -0.158   0.099
    1UNL    C12   14   0.358  -0.011   0.054
    1UNL    C13   15   0.460  -0.098   0.062
    1UNL    C14   16   0.604  -0.059   0.054
    1UNL    C15   17   0.698  -0.152   0.014
    1UNL    C16   18   0.830  -0.131   0.015
    1UNL    C17   19   0.874  -0.002   0.026
    1UNL    C18   20   0.786   0.096   0.066
    1UNL    C19   21   0.652   0.070   0.083
    1UNL    C20   22   0.146   0.197   0.024
    1UNL     O3   23   0.272   0.229   0.070
    1UNL    C21   24   0.044   0.292  -0.003
    1UNL    C22   25  -0.091   0.246  -0.024
    1UNL     O4   26  -0.189   0.347  -0.033
    1UNL    C23   27  -0.110   0.108  -0.037
    1UNL    C24   28  -0.243   0.027  -0.055
    1UNL    C25   29  -0.334   0.044   0.064
    1UNL     H1   30  -0.629   0.072   0.238
    1UNL     H2   31  -0.737   0.056   0.105
    1UNL     H3   32  -0.588   0.151   0.077
    1UNL     H4   33  -0.610  -0.154   0.121
    1UNL     H5   34  -0.550  -0.162  -0.115
    1UNL     H6   35  -0.522   0.009  -0.124
    1UNL     H7   36  -0.691  -0.053  -0.105
    1UNL     H8   37  -0.418  -0.066   0.221
    1UNL     H9   38  -0.396  -0.285   0.162
    1UNL    H10   39  -0.222  -0.326  -0.023
    1UNL    H11   40  -0.301  -0.130  -0.282
    1UNL    H12   41  -0.125  -0.089  -0.281
    1UNL    H13   42  -0.171  -0.252  -0.242
    1UNL    H14   43   0.379   0.097   0.039
    1UNL    H15   44   0.436  -0.200   0.069
    1UNL    H16   45   0.675  -0.254  -0.004
    1UNL    H17   46   0.909  -0.200  -0.009
    1UNL    H18   47   0.984   0.013   0.024
    1UNL    H19   48   0.830   0.189   0.101
    1UNL    H20   49   0.577   0.146   0.112
    1UNL    H21   50   0.266   0.322   0.086
    1UNL    H22   51   0.070   0.392  -0.009
    1UNL    H23   52  -0.270   0.314  -0.078
    1UNL    H24   53  -0.281   0.067  -0.153
    1UNL    H25   54  -0.401   0.123   0.042
    1UNL    H26   55  -0.270   0.075   0.147
   0.00000   0.00000   0.00000   0.00000   0.00000   0.00000   0.00000   0.00000   0.00000
Generated with MDTraj, t= 43.0
 55
    1UNL     C1    1  -0.651   0.063   0.139
    1UNL     C2    2  -0.562  -0.048   0.075
    1UNL     C3    3  -0.564  -0.040  -0.075
    1UNL     C4    4  -0.417  -0.072   0.128
    1UNL     C5    5  -0.361  -0.214   0.086
    1UNL     C6    6  -0.258  -0.235   0.010
    1UNL     C7    7  -0.190  -0.120  -0.075
    1UNL     C8    8  -0.205  -0.150  -0.224
    1UNL     O1    9  -0.052  -0.116  -0.035
    1UNL     C9   10  -0.008   0.014  -0.023
    1UNL    C10   11   0.125   0.053   0.001
    1UNL    C11   12   0.233  -0.040   0.036
    1UNL     O2   13   0.204  -0.160   0.032
    1UNL    C12   14   0.371   0.006   0.049
    1UNL    C13   15   0.462  -0.088   0.069
    1UNL    C14   16   0.604  -0.064   0.063
    1UNL    C15   17   0.702  -0.165   0.035
    1UNL    C16   18   0.832  -0.133   0.031
    1UNL    C17   19   0.876  -0.005   0.054
    1UNL    C18   20   0.789   0.096   0.066
    1UNL    C19   21   0.654   0.066   0.084
    1UNL    C20   22   0.145   0.197   0.014
    1UNL     O3   23   0.272   0.253   0.034
    1UNL    C21   24   0.031   0.285   0.018
    1UNL    C22   25  -0.101   0.237  -0.020
    1UNL     O4   26  -0.217   0.318  -0.038
    1UNL    C23   27  -0.112   0.099  -0.039
    1UNL    C24   28  -0.241   0.025  -0.040
    1UNL    C25   29  -0.311   0.040   0.101
    1UNL     H1   30  -0.666   0.040   0.245
    1UNL     H2   31  -0.752   0.062   0.100
    1UNL     H3   32  -0.618   0.171   0.126
    1UNL     H4   33  -0.609  -0.146   0.102
    1UNL     H5   34  -0.494  -0.097  -0.128
    1UNL     H6   35  -0.536   0.067  -0.096
    1UNL     H7   36  -0.663  -0.054  -0.127
    1UNL     H8   37  -0.430  -0.077   0.233
    1UNL     H9   38  -0.421  -0.293   0.121
    1UNL    H10   39  -0.228  -0.334  -0.024
    1UNL    H11   40  -0.317  -0.146  -0.248
    1UNL    H12   41  -0.162  -0.063  -0.282
    1UNL    H13   42  -0.159  -0.245  -0.253
    1UNL    H14   43   0.400   0.107   0.028
    1UNL    H15   44   0.429  -0.193   0.070
    1UNL    H16   45   0.674  -0.266   0.005
    1UNL    H17   46   0.907  -0.210   0.015
    1UNL    H18   47   0.980   0.006   0.075
    1UNL    H19   48   0.818   0.195   0.093
    1UNL    H20   49   0.579   0.142   0.108
    1UNL    H21   50   0.270   0.344   0.063
    1UNL    H22   51   0.039   0.391   0.040
    1UNL    H23   52  -0.282   0.272  -0.095
    1UNL    H24   53  -0.298   0.058  -0.128
    1UNL    H25   54  -0.346   0.138   0.097
    1UNL    H26   55  -0.227   0.039   0.174
   0.00000   0.00000   0.00000   0.00000   0.00000   0.00000   0.00000   0.00000   0.00000
Generated with MDTraj, t= 44.0
 55
    1UNL     C1    1  -0.640   0.061   0.143
    1UNL     C2    2  -0.569  -0.050   0.068
    1UNL     C3    3  -0.554  -0.008  -0.081
    1UNL     C4    4  -0.429  -0.085   0.132
    1UNL     C5    5  -0.375  -0.221   0.079
    1UNL     C6    6  -0.267  -0.234   0.009
    1UNL     C7    7  -0.193  -0.123  -0.056
    1UNL     C8    8  -0.200  -0.154  -0.210
    1UNL     O1    9  -0.055  -0.122  -0.002
    1UNL     C9   10  -0.012   0.009  -0.009
    1UNL    C10   11   0.116   0.055  -0.003
    1UNL    C11   12   0.231  -0.034  -0.001
    1UNL     O2   13   0.213  -0.151  -0.031
    1UNL    C12   14   0.369   0.006   0.030
    1UNL    C13   15   0.471  -0.080   0.024
    1UNL    C14   16   0.610  -0.052   0.057
    1UNL    C15   17   0.697  -0.162   0.055
    1UNL    C16   18   0.831  -0.138   0.075
    1UNL    C17   19   0.886  -0.010   0.088
    1UNL    C18   20   0.796   0.091   0.088
    1UNL    C19   21   0.661   0.073   0.068
    1UNL    C20   22   0.137   0.195  -0.002
    1UNL     O3   23   0.261   0.254   0.018
    1UNL    C21   24   0.033   0.287  -0.016
    1UNL    C22   25  -0.098   0.233  -0.025
    1UNL     O4   26  -0.201   0.327  -0.023
    1UNL    C23   27  -0.119   0.094  -0.019
    1UNL    C24   28  -0.252   0.022  -0.018
    1UNL    C25   29  -0.314   0.016   0.120
    1UNL     H1   30  -0.642   0.044   0.253
    1UNL     H2   31  -0.742   0.070   0.108
    1UNL     H3   32  -0.591   0.156   0.113
    1UNL     H4   33  -0.626  -0.148   0.079
    1UNL     H5   34  -0.480  -0.068  -0.137
    1UNL     H6   35  -0.510   0.095  -0.080
    1UNL     H7   36  -0.643  -0.000  -0.142
    1UNL     H8   37  -0.443  -0.095   0.237
    1UNL     H9   38  -0.436  -0.313   0.088
    1UNL    H10   39  -0.225  -0.331  -0.008
    1UNL    H11   40  -0.311  -0.177  -0.226
    1UNL    H12   41  -0.173  -0.068  -0.273
    1UNL    H13   42  -0.138  -0.249  -0.227
    1UNL    H14   43   0.397   0.105   0.038
    1UNL    H15   44   0.444  -0.183   0.013
    1UNL    H16   45   0.666  -0.260   0.023
    1UNL    H17   46   0.902  -0.221   0.069
    1UNL    H18   47   0.993   0.008   0.095
    1UNL    H19   48   0.842   0.189   0.087
    1UNL    H20   49   0.596   0.153   0.080
    1UNL    H21   50   0.277   0.352   0.029
    1UNL    H22   51   0.046   0.396  -0.016
    1UNL    H23   52  -0.282   0.272  -0.014
    1UNL    H24   53  -0.317   0.061  -0.092
    1UNL    H25   54  -0.343   0.113   0.147
    1UNL    H26   55  -0.227  -0.014   0.186
   0.00000   0.00000   0.00000   0.00000   0.00000   0.00000   0.00000   0.00000   0.00000
Generated with MDTraj, t= 45.0
 55
    1UNL     C1    1  -0.640   0.057   0.155
    1UNL     C2    2  -0.568  -0.050   0.073
    1UNL     C3    3  -0.573  -0.018  -0.078
    1UNL     C4    4  -0.428  -0.083   0.133
    1UNL     C5    5  -0.383  -0.219   0.081
    1UNL     C6    6  -0.273  -0.235   0.009
    1UNL     C7    7  -0.188  -0.120  -0.052
    1UNL     C8    8  -0.189  -0.145  -0.203
    1UNL     O1    9  -0.050  -0.127  -0.001
    1UNL     C9   10  -0.008   0.006   0.013
    1UNL    C10   11   0.124   0.052   0.000
    1UNL    C11   12   0.235  -0.041  -0.034
    1UNL     O2   13   0.213  -0.153  -0.080
    1UNL    C12   14   0.375  -0.001   0.000
    1UNL    C13   15   0.478  -0.084  -0.013
    1UNL    C14   16   0.614  -0.055   0.034
    1UNL    C15   17   0.701  -0.162   0.071
    1UNL    C16   18   0.831  -0.139   0.123
    1UNL    C17   19   0.872  -0.010   0.130
    1UNL    C18   20   0.786   0.097   0.098
    1UNL    C19   21   0.663   0.075   0.050
    1UNL    C20   22   0.147   0.196   0.007
    1UNL     O3   23   0.268   0.256  -0.022
    1UNL    C21   24   0.030   0.283  -0.002
    1UNL    C22   25  -0.102   0.233  -0.002
    1UNL     O4   26  -0.203   0.325  -0.016
    1UNL    C23   27  -0.114   0.097   0.006
    1UNL    C24   28  -0.244   0.023  -0.019
    1UNL    C25   29  -0.330   0.033   0.105
    1UNL     H1   30  -0.656   0.029   0.261
    1UNL     H2   31  -0.738   0.088   0.115
    1UNL     H3   32  -0.582   0.146   0.141
    1UNL     H4   33  -0.632  -0.144   0.095
    1UNL     H5   34  -0.533  -0.106  -0.139
    1UNL     H6   35  -0.519   0.077  -0.096
    1UNL     H7   36  -0.675  -0.007  -0.107
    1UNL     H8   37  -0.431  -0.088   0.241
    1UNL     H9   38  -0.419  -0.296   0.143
    1UNL    H10   39  -0.216  -0.327   0.014
    1UNL    H11   40  -0.281  -0.099  -0.245
    1UNL    H12   41  -0.107  -0.080  -0.233
    1UNL    H13   42  -0.171  -0.258  -0.232
    1UNL    H14   43   0.407   0.102   0.030
    1UNL    H15   44   0.449  -0.184  -0.039
    1UNL    H16   45   0.663  -0.262   0.054
    1UNL    H17   46   0.894  -0.221   0.146
    1UNL    H18   47   0.973   0.021   0.142
    1UNL    H19   48   0.813   0.198   0.129
    1UNL    H20   49   0.595   0.161   0.025
    1UNL    H21   50   0.251   0.356  -0.036
    1UNL    H22   51   0.037   0.386  -0.004
    1UNL    H23   52  -0.280   0.275   0.020
    1UNL    H24   53  -0.295   0.062  -0.101
    1UNL    H25   54  -0.382   0.127   0.110
    1UNL    H26   55  -0.258   0.034   0.192
   0.00000   0.00000   0.00000   0.00000   0.00000   0.00000   0.00000   0.00000   0.00000
Generated with MDTraj, t= 46.0
 55
    1UNL     C1    1  -0.643   0.054   0.156
    1UNL     C2    2  -0.562  -0.056   0.075
    1UNL     C3    3  -0.567  -0.041  -0.072
    1UNL     C4    4  -0.423  -0.079   0.149
    1UNL     C5    5  -0.363  -0.214   0.107
    1UNL     C6    6  -0.262  -0.234   0.021
    1UNL     C7    7  -0.190  -0.126  -0.052
    1UNL     C8    8  -0.200  -0.140  -0.205
    1UNL     O1    9  -0.047  -0.118  -0.027
    1UNL     C9   10  -0.005   0.014  -0.032
    1UNL    C10   11   0.125   0.057  -0.041
    1UNL    C11   12   0.236  -0.046  -0.050
    1UNL     O2   13   0.227  -0.156  -0.103
    1UNL    C12   14   0.362  -0.014  -0.000
    1UNL    C13   15   0.470  -0.094  -0.015
    1UNL    C14   16   0.602  -0.063   0.036
    1UNL    C15   17   0.681  -0.163   0.091
    1UNL    C16   18   0.807  -0.134   0.142
    1UNL    C17   19   0.850  -0.001   0.154
    1UNL    C18   20   0.772   0.101   0.096
    1UNL    C19   21   0.653   0.069   0.044
    1UNL    C20   22   0.151   0.196  -0.017
    1UNL     O3   23   0.273   0.258  -0.016
    1UNL    C21   24   0.045   0.283   0.001
    1UNL    C22   25  -0.089   0.246   0.000
    1UNL     O4   26  -0.194   0.337   0.023
    1UNL    C23   27  -0.106   0.105  -0.012
    1UNL    C24   28  -0.243   0.021  -0.018
    1UNL    C25   29  -0.319   0.030   0.119
    1UNL     H1   30  -0.655   0.026   0.262
    1UNL     H2   31  -0.742   0.091   0.123
    1UNL     H3   32  -0.585   0.142   0.155
    1UNL     H4   33  -0.620  -0.154   0.101
    1UNL     H5   34  -0.528  -0.137  -0.121
    1UNL     H6   35  -0.514   0.051  -0.102
    1UNL     H7   36  -0.669  -0.035  -0.098
    1UNL     H8   37  -0.436  -0.070   0.259
    1UNL     H9   38  -0.416  -0.299   0.152
    1UNL    H10   39  -0.239  -0.332  -0.015
    1UNL    H11   40  -0.302  -0.168  -0.238
    1UNL    H12   41  -0.174  -0.042  -0.257
    1UNL    H13   42  -0.130  -0.225  -0.237
    1UNL    H14   43   0.377   0.088   0.032
    1UNL    H15   44   0.451  -0.189  -0.068
    1UNL    H16   45   0.643  -0.265   0.085
    1UNL    H17   46   0.878  -0.216   0.165
    1UNL    H18   47   0.932   0.033   0.218
    1UNL    H19   48   0.797   0.206   0.113
    1UNL    H20   49   0.589   0.144   0.012
    1UNL    H21   50   0.261   0.358  -0.011
    1UNL    H22   51   0.078   0.390  -0.012
    1UNL    H23   52  -0.273   0.292   0.060
    1UNL    H24   53  -0.308   0.056  -0.091
    1UNL    H25   54  -0.374   0.129   0.130
    1UNL    H26   55  -0.243   0.030   0.201
   0.00000   0.00000   0.00000   0.00000   0.00000   0.00000   0.00000   0.00000   0.00000
Generated with MDTraj, t= 47.0
 55
    1UNL     C1    1  -0.613   0.050   0.158
    1UNL     C2    2  -0.541  -0.073   0.098
    1UNL     C3    3  -0.545  -0.066  -0.056
    1UNL     C4    4  -0.404  -0.080   0.157
    1UNL     C5    5  -0.334  -0.205   0.123
    1UNL     C6    6  -0.254  -0.224   0.019
    1UNL     C7    7  -0.203  -0.111  -0.071
    1UNL     C8    8  -0.245  -0.138  -0.216
    1UNL     O1    9  -0.059  -0.114  -0.075
    1UNL     C9   10  -0.010   0.014  -0.048
    1UNL    C10   11   0.125   0.057  -0.055
    1UNL    C11   12   0.236  -0.042  -0.067
    1UNL     O2   13   0.212  -0.146  -0.127
    1UNL    C12   14   0.367  -0.007  -0.012
    1UNL    C13   15   0.463  -0.102   0.015
    1UNL    C14   16   0.592  -0.063   0.060
    1UNL    C15   17   0.672  -0.164   0.113
    1UNL    C16   18   0.800  -0.138   0.157
    1UNL    C17   19   0.848  -0.002   0.157
    1UNL    C18   20   0.768   0.100   0.104
    1UNL    C19   21   0.644   0.066   0.051
    1UNL    C20   22   0.148   0.192  -0.019
    1UNL     O3   23   0.273   0.256  -0.021
    1UNL    C21   24   0.041   0.279   0.021
    1UNL    C22   25  -0.094   0.247   0.002
    1UNL     O4   26  -0.188   0.342   0.012
    1UNL    C23   27  -0.114   0.107  -0.022
    1UNL    C24   28  -0.239   0.031  -0.016
    1UNL    C25   29  -0.305   0.034   0.131
    1UNL     H1   30  -0.595   0.078   0.262
    1UNL     H2   31  -0.722   0.046   0.145
    1UNL     H3   32  -0.585   0.133   0.096
    1UNL     H4   33  -0.593  -0.168   0.142
    1UNL     H5   34  -0.493  -0.156  -0.087
    1UNL     H6   35  -0.489   0.022  -0.093
    1UNL     H7   36  -0.642  -0.070  -0.110
    1UNL     H8   37  -0.409  -0.081   0.270
    1UNL     H9   38  -0.380  -0.290   0.164
    1UNL    H10   39  -0.223  -0.326  -0.009
    1UNL    H11   40  -0.345  -0.099  -0.243
    1UNL    H12   41  -0.175  -0.089  -0.297
    1UNL    H13   42  -0.257  -0.245  -0.237
    1UNL    H14   43   0.389   0.094  -0.015
    1UNL    H15   44   0.446  -0.204  -0.007
    1UNL    H16   45   0.639  -0.264   0.088
    1UNL    H17   46   0.863  -0.217   0.181
    1UNL    H18   47   0.932   0.017   0.219
    1UNL    H19   48   0.803   0.201   0.101
    1UNL    H20   49   0.579   0.146   0.009
    1UNL    H21   50   0.250   0.351  -0.019
    1UNL    H22   51   0.060   0.380   0.041
    1UNL    H23   52  -0.277   0.304   0.036
    1UNL    H24   53  -0.310   0.075  -0.081
    1UNL    H25   54  -0.346   0.143   0.150
    1UNL    H26   55  -0.226   0.025   0.210
   0.00000   0.00000   0.00000   0.00000   0.00000   0.00000   0.00000   0.00000   0.00000
Generated with MDTraj, t= 48.0
 55
    1UNL     C1    1  -0.590   0.065   0.171
    1UNL     C2    2  -0.534  -0.073   0.125
    1UNL     C3    3  -0.577  -0.110  -0.009
    1UNL     C4    4  -0.386  -0.087   0.156
    1UNL     C5    5  -0.333  -0.213   0.101
    1UNL     C6    6  -0.244  -0.218   0.005
    1UNL     C7    7  -0.199  -0.106  -0.083
    1UNL     C8    8  -0.247  -0.136  -0.225
    1UNL     O1    9  -0.056  -0.102  -0.094
    1UNL     C9   10  -0.007   0.019  -0.055
    1UNL    C10   11   0.129   0.069  -0.051
    1UNL    C11   12   0.234  -0.031  -0.071
    1UNL     O2   13   0.206  -0.139  -0.121
    1UNL    C12   14   0.359   0.002  -0.013
    1UNL    C13   15   0.455  -0.092   0.012
    1UNL    C14   16   0.588  -0.066   0.066
    1UNL    C15   17   0.666  -0.168   0.124
    1UNL    C16   18   0.792  -0.148   0.173
    1UNL    C17   19   0.853  -0.020   0.164
    1UNL    C18   20   0.769   0.082   0.117
    1UNL    C19   21   0.640   0.060   0.062
    1UNL    C20   22   0.145   0.212  -0.026
    1UNL     O3   23   0.274   0.265  -0.019
    1UNL    C21   24   0.037   0.293  -0.020
    1UNL    C22   25  -0.090   0.242  -0.007
    1UNL     O4   26  -0.195   0.331   0.018
    1UNL    C23   27  -0.117   0.107  -0.028
    1UNL    C24   28  -0.245   0.032  -0.031
    1UNL    C25   29  -0.292   0.034   0.120
    1UNL     H1   30  -0.559   0.091   0.271
    1UNL     H2   31  -0.699   0.060   0.166
    1UNL     H3   32  -0.562   0.149   0.108
    1UNL     H4   33  -0.578  -0.147   0.203
    1UNL     H5   34  -0.541  -0.208  -0.028
    1UNL     H6   35  -0.527  -0.039  -0.078
    1UNL     H7   36  -0.689  -0.110  -0.034
    1UNL     H8   37  -0.367  -0.092   0.269
    1UNL     H9   38  -0.347  -0.311   0.150
    1UNL    H10   39  -0.193  -0.310  -0.015
    1UNL    H11   40  -0.344  -0.185  -0.257
    1UNL    H12   41  -0.228  -0.044  -0.293
    1UNL    H13   42  -0.175  -0.209  -0.262
    1UNL    H14   43   0.381   0.109  -0.007
    1UNL    H15   44   0.428  -0.199  -0.003
    1UNL    H16   45   0.626  -0.268   0.108
    1UNL    H17   46   0.843  -0.241   0.211
    1UNL    H18   47   0.959  -0.014   0.191
    1UNL    H19   48   0.790   0.188   0.133
    1UNL    H20   49   0.586   0.137   0.013
    1UNL    H21   50   0.272   0.359  -0.007
    1UNL    H22   51   0.044   0.401  -0.010
    1UNL    H23   52  -0.273   0.275   0.039
    1UNL    H24   53  -0.318   0.079  -0.093
    1UNL    H25   54  -0.353   0.131   0.142
    1UNL    H26   55  -0.199   0.052   0.182
   0.00000   0.00000   0.00000   0.00000   0.00000   0.00000   0.00000   0.00000   0.00000
Generated with MDTraj, t= 49.0
 55
    1UNL     C1    1  -0.577   0.056   0.207
    1UNL     C2    2  -0.522  -0.082   0.140
    1UNL     C3    3  -0.565  -0.114  -0.002
    1UNL     C4    4  -0.366  -0.090   0.166
    1UNL     C5    5  -0.324  -0.216   0.101
    1UNL     C6    6  -0.253  -0.224  -0.013
    1UNL     C7    7  -0.200  -0.104  -0.091
    1UNL     C8    8  -0.225  -0.125  -0.243
    1UNL     O1    9  -0.057  -0.106  -0.075
    1UNL     C9   10  -0.013   0.028  -0.057
    1UNL    C10   11   0.123   0.073  -0.044
    1UNL    C11   12   0.227  -0.024  -0.061
    1UNL     O2   13   0.212  -0.133  -0.112
    1UNL    C12   14   0.354   0.020  -0.007
    1UNL    C13   15   0.459  -0.071  -0.006
    1UNL    C14   16   0.584  -0.066   0.064
    1UNL    C15   17   0.650  -0.174   0.115
    1UNL    C16   18   0.775  -0.167   0.179
    1UNL    C17   19   0.844  -0.043   0.183
    1UNL    C18   20   0.781   0.072   0.128
    1UNL    C19   21   0.651   0.056   0.068
    1UNL    C20   22   0.137   0.217  -0.038
    1UNL     O3   23   0.268   0.269  -0.035
    1UNL    C21   24   0.027   0.302  -0.025
    1UNL    C22   25  -0.098   0.248  -0.022
    1UNL     O4   26  -0.208   0.330  -0.010
    1UNL    C23   27  -0.123   0.115  -0.042
    1UNL    C24   28  -0.244   0.031  -0.032
    1UNL    C25   29  -0.281   0.026   0.121
    1UNL     H1   30  -0.570   0.072   0.312
    1UNL     H2   31  -0.682   0.060   0.177
    1UNL     H3   32  -0.539   0.148   0.160
    1UNL     H4   33  -0.568  -0.163   0.206
    1UNL     H5   34  -0.527  -0.207  -0.037
    1UNL     H6   35  -0.529  -0.028  -0.062
    1UNL     H7   36  -0.681  -0.117  -0.005
    1UNL     H8   37  -0.342  -0.097   0.279
    1UNL     H9   38  -0.338  -0.304   0.155
    1UNL    H10   39  -0.224  -0.321  -0.055
    1UNL    H11   40  -0.338  -0.142  -0.255
    1UNL    H12   41  -0.191  -0.040  -0.304
    1UNL    H13   42  -0.185  -0.220  -0.283
    1UNL    H14   43   0.372   0.123   0.031
    1UNL    H15   44   0.433  -0.170  -0.033
    1UNL    H16   45   0.593  -0.265   0.116
    1UNL    H17   46   0.822  -0.254   0.212
    1UNL    H18   47   0.941  -0.043   0.234
    1UNL    H19   48   0.823   0.170   0.146
    1UNL    H20   49   0.595   0.144   0.038
    1UNL    H21   50   0.264   0.363  -0.017
    1UNL    H22   51   0.035   0.413  -0.035
    1UNL    H23   52  -0.293   0.286  -0.030
    1UNL    H24   53  -0.325   0.070  -0.092
    1UNL    H25   54  -0.323   0.126   0.158
    1UNL    H26   55  -0.184   0.022   0.182
   0.00000   0.00000   0.00000   0.00000   0.00000   0.00000   0.00000   0.00000   0.00000
Generated with MDTraj, t= 50.0
 55
    1UNL     C1    1  -0.572   0.017   0.243
    1UNL     C2    2  -0.531  -0.080   0.136
    1UNL     C3    3  -0.563  -0.043  -0.011
    1UNL     C4    4  -0.375  -0.106   0.164
    1UNL     C5    5  -0.319  -0.231   0.104
    1UNL     C6    6  -0.240  -0.237  -0.005
    1UNL     C7    7  -0.191  -0.116  -0.075
    1UNL     C8    8  -0.227  -0.131  -0.229
    1UNL     O1    9  -0.046  -0.105  -0.065
    1UNL     C9   10  -0.005   0.030  -0.052
    1UNL    C10   11   0.123   0.085  -0.067
    1UNL    C11   12   0.237  -0.010  -0.064
    1UNL     O2   13   0.220  -0.117  -0.116
    1UNL    C12   14   0.370   0.027  -0.023
    1UNL    C13   15   0.457  -0.078   0.007
    1UNL    C14   16   0.586  -0.069   0.066
    1UNL    C15   17   0.648  -0.184   0.109
    1UNL    C16   18   0.770  -0.177   0.169
    1UNL    C17   19   0.828  -0.053   0.201
    1UNL    C18   20   0.777   0.066   0.137
    1UNL    C19   21   0.654   0.055   0.078
    1UNL    C20   22   0.133   0.224  -0.054
    1UNL     O3   23   0.260   0.279  -0.035
    1UNL    C21   24   0.018   0.303  -0.039
    1UNL    C22   25  -0.110   0.258  -0.039
    1UNL     O4   26  -0.225   0.338  -0.044
    1UNL    C23   27  -0.119   0.115  -0.040
    1UNL    C24   28  -0.243   0.025  -0.020
    1UNL    C25   29  -0.277   0.012   0.125
    1UNL     H1   30  -0.513   0.009   0.332
    1UNL     H2   31  -0.678   0.024   0.262
    1UNL     H3   32  -0.543   0.115   0.202
    1UNL     H4   33  -0.591  -0.171   0.165
    1UNL     H5   34  -0.504  -0.123  -0.060
    1UNL     H6   35  -0.521   0.053  -0.043
    1UNL     H7   36  -0.672  -0.052  -0.043
    1UNL     H8   37  -0.366  -0.119   0.278
    1UNL     H9   38  -0.370  -0.324   0.136
    1UNL    H10   39  -0.205  -0.331  -0.040
    1UNL    H11   40  -0.338  -0.116  -0.252
    1UNL    H12   41  -0.162  -0.061  -0.277
    1UNL    H13   42  -0.211  -0.239  -0.266
    1UNL    H14   43   0.386   0.119   0.021
    1UNL    H15   44   0.423  -0.179  -0.027
    1UNL    H16   45   0.592  -0.272   0.079
    1UNL    H17   46   0.802  -0.277   0.203
    1UNL    H18   47   0.916  -0.055   0.258
    1UNL    H19   48   0.824   0.162   0.144
    1UNL    H20   49   0.607   0.148   0.048
    1UNL    H21   50   0.254   0.377  -0.018
    1UNL    H22   51   0.027   0.403  -0.018
    1UNL    H23   52  -0.300   0.298  -0.094
    1UNL    H24   53  -0.328   0.067  -0.073
    1UNL    H25   54  -0.313   0.108   0.166
    1UNL    H26   55  -0.179  -0.002   0.187
   0.00000   0.00000   0.00000   0.00000   0.00000   0.00000   0.00000   0.00000   0.00000
Generated with MDTraj, t= 51.0
 55
    1UNL     C1    1  -0.585  -0.004   0.262
    1UNL     C2    2  -0.521  -0.077   0.132
    1UNL     C3    3  -0.567  -0.002   0.005
    1UNL     C4    4  -0.376  -0.095   0.162
    1UNL     C5    5  -0.329  -0.223   0.103
    1UNL     C6    6  -0.246  -0.239  -0.000
    1UNL     C7    7  -0.187  -0.120  -0.071
    1UNL     C8    8  -0.197  -0.139  -0.228
    1UNL     O1    9  -0.042  -0.110  -0.047
    1UNL     C9   10  -0.008   0.021  -0.060
    1UNL    C10   11   0.119   0.082  -0.069
    1UNL    C11   12   0.241  -0.009  -0.087
    1UNL     O2   13   0.239  -0.112  -0.150
    1UNL    C12   14   0.362   0.017  -0.012
    1UNL    C13   15   0.454  -0.080   0.003
    1UNL    C14   16   0.579  -0.063   0.069
    1UNL    C15   17   0.650  -0.180   0.109
    1UNL    C16   18   0.774  -0.177   0.171
    1UNL    C17   19   0.838  -0.054   0.188
    1UNL    C18   20   0.763   0.067   0.160
    1UNL    C19   21   0.639   0.061   0.101
    1UNL    C20   22   0.132   0.221  -0.055
    1UNL     O3   23   0.262   0.273  -0.052
    1UNL    C21   24   0.014   0.301  -0.046
    1UNL    C22   25  -0.114   0.250  -0.038
    1UNL     O4   26  -0.223   0.325  -0.026
    1UNL    C23   27  -0.118   0.109  -0.042
    1UNL    C24   28  -0.241   0.021  -0.030
    1UNL    C25   29  -0.289   0.028   0.110
    1UNL     H1   30  -0.568  -0.056   0.355
    1UNL     H2   31  -0.684   0.037   0.256
    1UNL     H3   32  -0.523   0.087   0.276
    1UNL     H4   33  -0.560  -0.180   0.130
    1UNL     H5   34  -0.540  -0.039  -0.101
    1UNL     H6   35  -0.533   0.102   0.009
    1UNL     H7   36  -0.675   0.006   0.004
    1UNL     H8   37  -0.368  -0.110   0.273
    1UNL     H9   38  -0.370  -0.309   0.147
    1UNL    H10   39  -0.224  -0.343  -0.030
    1UNL    H11   40  -0.285  -0.199  -0.255
    1UNL    H12   41  -0.192  -0.036  -0.264
    1UNL    H13   42  -0.109  -0.205  -0.268
    1UNL    H14   43   0.376   0.110   0.047
    1UNL    H15   44   0.426  -0.171  -0.041
    1UNL    H16   45   0.591  -0.268   0.089
    1UNL    H17   46   0.828  -0.270   0.178
    1UNL    H18   47   0.947  -0.052   0.218
    1UNL    H19   48   0.828   0.155   0.170
    1UNL    H20   49   0.593   0.155   0.083
    1UNL    H21   50   0.256   0.373  -0.035
    1UNL    H22   51   0.029   0.413  -0.053
    1UNL    H23   52  -0.298   0.281  -0.073
    1UNL    H24   53  -0.323   0.047  -0.100
    1UNL    H25   54  -0.337   0.121   0.135
    1UNL    H26   55  -0.192   0.033   0.178
   0.00000   0.00000   0.00000   0.00000   0.00000   0.00000   0.00000   0.00000   0.00000
Generated with MDTraj, t= 52.0
 55
    1UNL     C1    1  -0.592   0.002   0.256
    1UNL     C2    2  -0.534  -0.067   0.142
    1UNL     C3    3  -0.574  -0.004   0.016
    1UNL     C4    4  -0.380  -0.096   0.163
    1UNL     C5    5  -0.339  -0.225   0.095
    1UNL     C6    6  -0.251  -0.233  -0.007
    1UNL     C7    7  -0.181  -0.122  -0.075
    1UNL     C8    8  -0.217  -0.150  -0.225
    1UNL     O1    9  -0.039  -0.113  -0.063
    1UNL     C9   10  -0.005   0.021  -0.058
    1UNL    C10   11   0.126   0.075  -0.056
    1UNL    C11   12   0.241  -0.013  -0.087
    1UNL     O2   13   0.232  -0.106  -0.159
    1UNL    C12   14   0.359   0.011  -0.010
    1UNL    C13   15   0.460  -0.079   0.000
    1UNL    C14   16   0.591  -0.070   0.061
    1UNL    C15   17   0.668  -0.183   0.096
    1UNL    C16   18   0.787  -0.165   0.164
    1UNL    C17   19   0.830  -0.035   0.197
    1UNL    C18   20   0.743   0.072   0.176
    1UNL    C19   21   0.627   0.056   0.116
    1UNL    C20   22   0.144   0.217  -0.054
    1UNL     O3   23   0.267   0.275  -0.073
    1UNL    C21   24   0.032   0.301  -0.047
    1UNL    C22   25  -0.099   0.247  -0.033
    1UNL     O4   26  -0.209   0.328  -0.021
    1UNL    C23   27  -0.114   0.108  -0.034
    1UNL    C24   28  -0.239   0.018  -0.027
    1UNL    C25   29  -0.294   0.023   0.119
    1UNL     H1   30  -0.588  -0.056   0.350
    1UNL     H2   31  -0.693   0.028   0.231
    1UNL     H3   32  -0.543   0.097   0.272
    1UNL     H4   33  -0.584  -0.163   0.132
    1UNL     H5   34  -0.553  -0.075  -0.075
    1UNL     H6   35  -0.522   0.092  -0.002
    1UNL     H7   36  -0.679   0.017   0.010
    1UNL     H8   37  -0.364  -0.113   0.269
    1UNL     H9   38  -0.359  -0.326   0.134
    1UNL    H10   39  -0.225  -0.330  -0.044
    1UNL    H11   40  -0.324  -0.134  -0.243
    1UNL    H12   41  -0.145  -0.095  -0.294
    1UNL    H13   42  -0.223  -0.262  -0.240
    1UNL    H14   43   0.382   0.105   0.035
    1UNL    H15   44   0.430  -0.176  -0.042
    1UNL    H16   45   0.620  -0.276   0.067
    1UNL    H17   46   0.848  -0.251   0.181
    1UNL    H18   47   0.928  -0.016   0.224
    1UNL    H19   48   0.769   0.168   0.216
    1UNL    H20   49   0.569   0.148   0.091
    1UNL    H21   50   0.249   0.375  -0.068
    1UNL    H22   51   0.051   0.401  -0.024
    1UNL    H23   52  -0.290   0.271  -0.027
    1UNL    H24   53  -0.317   0.051  -0.100
    1UNL    H25   54  -0.352   0.113   0.123
    1UNL    H26   55  -0.209   0.050   0.195
   0.00000   0.00000   0.00000   0.00000   0.00000   0.00000   0.00000   0.00000   0.00000
Generated with MDTraj, t= 53.0
 55
    1UNL     C1    1  -0.591   0.039   0.233
    1UNL     C2    2  -0.524  -0.073   0.150
    1UNL     C3    3  -0.551  -0.042   0.002
    1UNL     C4    4  -0.370  -0.096   0.164
    1UNL     C5    5  -0.331  -0.221   0.101
    1UNL     C6    6  -0.259  -0.231  -0.013
    1UNL     C7    7  -0.197  -0.108  -0.080
    1UNL     C8    8  -0.237  -0.123  -0.230
    1UNL     O1    9  -0.056  -0.117  -0.073
    1UNL     C9   10  -0.018   0.018  -0.065
    1UNL    C10   11   0.118   0.064  -0.074
    1UNL    C11   12   0.236  -0.029  -0.088
    1UNL     O2   13   0.212  -0.137  -0.129
    1UNL    C12   14   0.365   0.009  -0.038
    1UNL    C13   15   0.464  -0.085  -0.009
    1UNL    C14   16   0.587  -0.056   0.060
    1UNL    C15   17   0.678  -0.160   0.069
    1UNL    C16   18   0.795  -0.147   0.142
    1UNL    C17   19   0.818  -0.031   0.217
    1UNL    C18   20   0.739   0.078   0.201
    1UNL    C19   21   0.626   0.066   0.125
    1UNL    C20   22   0.144   0.203  -0.061
    1UNL     O3   23   0.272   0.259  -0.051
    1UNL    C21   24   0.038   0.291  -0.046
    1UNL    C22   25  -0.093   0.245  -0.030
    1UNL     O4   26  -0.196   0.336  -0.012
    1UNL    C23   27  -0.118   0.107  -0.033
    1UNL    C24   28  -0.241   0.025  -0.016
    1UNL    C25   29  -0.279   0.014   0.140
    1UNL     H1   30  -0.573   0.045   0.342
    1UNL     H2   31  -0.696   0.016   0.216
    1UNL     H3   32  -0.581   0.134   0.184
    1UNL     H4   33  -0.577  -0.164   0.163
    1UNL     H5   34  -0.508  -0.116  -0.072
    1UNL     H6   35  -0.499   0.057  -0.016
    1UNL     H7   36  -0.657  -0.031  -0.016
    1UNL     H8   37  -0.363  -0.118   0.268
    1UNL     H9   38  -0.375  -0.309   0.142
    1UNL    H10   39  -0.234  -0.327  -0.060
    1UNL    H11   40  -0.343  -0.140  -0.243
    1UNL    H12   41  -0.202  -0.024  -0.279
    1UNL    H13   42  -0.192  -0.209  -0.282
    1UNL    H14   43   0.390   0.107  -0.008
    1UNL    H15   44   0.453  -0.186  -0.045
    1UNL    H16   45   0.650  -0.252   0.020
    1UNL    H17   46   0.869  -0.227   0.155
    1UNL    H18   47   0.895  -0.031   0.299
    1UNL    H19   48   0.771   0.173   0.245
    1UNL    H20   49   0.561   0.148   0.124
    1UNL    H21   50   0.272   0.359  -0.054
    1UNL    H22   51   0.058   0.392  -0.010
    1UNL    H23   52  -0.280   0.290   0.013
    1UNL    H24   53  -0.327   0.069  -0.074
    1UNL    H25   54  -0.318   0.108   0.177
    1UNL    H26   55  -0.179   0.002   0.195
   0.00000   0.00000   0.00000   0.00000   0.00000   0.00000   0.00000   0.00000   0.00000
Generated with MDTraj, t= 54.0
 55
    1UNL     C1    1  -0.572   0.077   0.195
    1UNL     C2    2  -0.517  -0.057   0.143
    1UNL     C3    3  -0.565  -0.073   0.002
    1UNL     C4    4  -0.369  -0.097   0.166
    1UNL     C5    5  -0.318  -0.225   0.103
    1UNL     C6    6  -0.240  -0.227  -0.006
    1UNL     C7    7  -0.198  -0.108  -0.086
    1UNL     C8    8  -0.252  -0.116  -0.235
    1UNL     O1    9  -0.055  -0.111  -0.092
    1UNL     C9   10  -0.008   0.022  -0.065
    1UNL    C10   11   0.122   0.062  -0.063
    1UNL    C11   12   0.224  -0.041  -0.072
    1UNL     O2   13   0.204  -0.154  -0.101
    1UNL    C12   14   0.357   0.001  -0.027
    1UNL    C13   15   0.457  -0.098  -0.005
    1UNL    C14   16   0.582  -0.068   0.064
    1UNL    C15   17   0.699  -0.154   0.055
    1UNL    C16   18   0.812  -0.127   0.124
    1UNL    C17   19   0.817  -0.013   0.201
    1UNL    C18   20   0.714   0.074   0.200
    1UNL    C19   21   0.599   0.051   0.127
    1UNL    C20   22   0.145   0.202  -0.046
    1UNL     O3   23   0.273   0.254  -0.065
    1UNL    C21   24   0.038   0.291  -0.013
    1UNL    C22   25  -0.094   0.246  -0.015
    1UNL     O4   26  -0.203   0.335   0.007
    1UNL    C23   27  -0.111   0.107  -0.029
    1UNL    C24   28  -0.235   0.026  -0.030
    1UNL    C25   29  -0.272   0.017   0.124
    1UNL     H1   30  -0.527   0.073   0.297
    1UNL     H2   31  -0.681   0.088   0.203
    1UNL     H3   32  -0.532   0.162   0.144
    1UNL     H4   33  -0.574  -0.132   0.192
    1UNL     H5   34  -0.525  -0.166  -0.038
    1UNL     H6   35  -0.515   0.003  -0.065
    1UNL     H7   36  -0.676  -0.076  -0.017
    1UNL     H8   37  -0.371  -0.110   0.269
    1UNL     H9   38  -0.348  -0.322   0.146
    1UNL    H10   39  -0.219  -0.324  -0.044
    1UNL    H11   40  -0.360  -0.142  -0.255
    1UNL    H12   41  -0.225  -0.023  -0.295
    1UNL    H13   42  -0.204  -0.196  -0.287
    1UNL    H14   43   0.360   0.097   0.032
    1UNL    H15   44   0.459  -0.191  -0.062
    1UNL    H16   45   0.694  -0.243  -0.004
    1UNL    H17   46   0.893  -0.195   0.123
    1UNL    H18   47   0.908   0.006   0.252
    1UNL    H19   48   0.722   0.169   0.252
    1UNL    H20   49   0.520   0.126   0.132
    1UNL    H21   50   0.280   0.351  -0.058
    1UNL    H22   51   0.055   0.400  -0.010
    1UNL    H23   52  -0.283   0.285   0.034
    1UNL    H24   53  -0.312   0.084  -0.091
    1UNL    H25   54  -0.308   0.112   0.165
    1UNL    H26   55  -0.172  -0.003   0.170
   0.00000   0.00000   0.00000   0.00000   0.00000   0.00000   0.00000   0.00000   0.00000
Generated with MDTraj, t= 55.0
 55
    1UNL     C1    1  -0.576   0.088   0.169
    1UNL     C2    2  -0.527  -0.058   0.138
    1UNL     C3    3  -0.568  -0.092  -0.009
    1UNL     C4    4  -0.375  -0.087   0.165
    1UNL     C5    5  -0.329  -0.217   0.110
    1UNL     C6    6  -0.261  -0.232  -0.004
    1UNL     C7    7  -0.210  -0.113  -0.083
    1UNL     C8    8  -0.258  -0.118  -0.231
    1UNL     O1    9  -0.062  -0.111  -0.080
    1UNL     C9   10  -0.011   0.016  -0.069
    1UNL    C10   11   0.121   0.059  -0.071
    1UNL    C11   12   0.231  -0.043  -0.070
    1UNL     O2   13   0.226  -0.152  -0.120
    1UNL    C12   14   0.359   0.000  -0.022
    1UNL    C13   15   0.453  -0.094   0.018
    1UNL    C14   16   0.583  -0.059   0.074
    1UNL    C15   17   0.692  -0.144   0.045
    1UNL    C16   18   0.815  -0.116   0.096
    1UNL    C17   19   0.836  -0.005   0.169
    1UNL    C18   20   0.733   0.073   0.209
    1UNL    C19   21   0.604   0.050   0.158
    1UNL    C20   22   0.147   0.197  -0.049
    1UNL     O3   23   0.275   0.243  -0.033
    1UNL    C21   24   0.037   0.285  -0.028
    1UNL    C22   25  -0.090   0.236  -0.012
    1UNL     O4   26  -0.183   0.339   0.021
    1UNL    C23   27  -0.114   0.105  -0.038
    1UNL    C24   28  -0.242   0.029  -0.026
    1UNL    C25   29  -0.278   0.020   0.126
    1UNL     H1   30  -0.550   0.114   0.273
    1UNL     H2   31  -0.680   0.114   0.149
    1UNL     H3   32  -0.523   0.158   0.107
    1UNL     H4   33  -0.582  -0.128   0.194
    1UNL     H5   34  -0.539  -0.188  -0.046
    1UNL     H6   35  -0.524  -0.029  -0.085
    1UNL     H7   36  -0.685  -0.091  -0.028
    1UNL     H8   37  -0.369  -0.097   0.265
    1UNL     H9   38  -0.343  -0.304   0.173
    1UNL    H10   39  -0.235  -0.338  -0.018
    1UNL    H11   40  -0.369  -0.087  -0.233
    1UNL    H12   41  -0.209  -0.052  -0.300
    1UNL    H13   42  -0.265  -0.217  -0.278
    1UNL    H14   43   0.382   0.104  -0.004
    1UNL    H15   44   0.422  -0.196  -0.004
    1UNL    H16   45   0.683  -0.241  -0.004
    1UNL    H17   46   0.902  -0.181   0.073
    1UNL    H18   47   0.940   0.031   0.171
    1UNL    H19   48   0.751   0.152   0.280
    1UNL    H20   49   0.517   0.112   0.177
    1UNL    H21   50   0.280   0.328   0.009
    1UNL    H22   51   0.051   0.384  -0.002
    1UNL    H23   52  -0.263   0.300   0.060
    1UNL    H24   53  -0.326   0.074  -0.086
    1UNL    H25   54  -0.319   0.117   0.160
    1UNL    H26   55  -0.194  -0.007   0.191
   0.00000   0.00000   0.00000   0.00000   0.00000   0.00000   0.00000   0.00000   0.00000
Generated with MDTraj, t= 56.0
 55
    1UNL     C1    1  -0.588   0.075   0.163
    1UNL     C2    2  -0.545  -0.058   0.115
    1UNL     C3    3  -0.565  -0.069  -0.037
    1UNL     C4    4  -0.389  -0.081   0.158
    1UNL     C5    5  -0.337  -0.222   0.115
    1UNL     C6    6  -0.253  -0.231   0.007
    1UNL     C7    7  -0.203  -0.116  -0.070
    1UNL     C8    8  -0.245  -0.136  -0.215
    1UNL     O1    9  -0.057  -0.109  -0.060
    1UNL     C9   10  -0.008   0.016  -0.046
    1UNL    C10   11   0.124   0.059  -0.036
    1UNL    C11   12   0.236  -0.038  -0.060
    1UNL     O2   13   0.218  -0.135  -0.128
    1UNL    C12   14   0.362  -0.010   0.011
    1UNL    C13   15   0.463  -0.102   0.010
    1UNL    C14   16   0.594  -0.076   0.065
    1UNL    C15   17   0.706  -0.152   0.028
    1UNL    C16   18   0.828  -0.109   0.074
    1UNL    C17   19   0.844  -0.002   0.153
    1UNL    C18   20   0.735   0.074   0.198
    1UNL    C19   21   0.612   0.035   0.154
    1UNL    C20   22   0.143   0.200  -0.035
    1UNL     O3   23   0.270   0.252  -0.040
    1UNL    C21   24   0.036   0.287  -0.010
    1UNL    C22   25  -0.098   0.243  -0.016
    1UNL     O4   26  -0.193   0.335  -0.006
    1UNL    C23   27  -0.116   0.103  -0.027
    1UNL    C24   28  -0.245   0.025  -0.018
    1UNL    C25   29  -0.293   0.036   0.123
    1UNL     H1   30  -0.572   0.088   0.270
    1UNL     H2   31  -0.691   0.099   0.136
    1UNL     H3   32  -0.535   0.151   0.105
    1UNL     H4   33  -0.611  -0.135   0.150
    1UNL     H5   34  -0.548  -0.171  -0.073
    1UNL     H6   35  -0.506  -0.005  -0.098
    1UNL     H7   36  -0.678  -0.048  -0.053
    1UNL     H8   37  -0.392  -0.079   0.258
    1UNL     H9   38  -0.369  -0.308   0.175
    1UNL    H10   39  -0.197  -0.319  -0.016
    1UNL    H11   40  -0.354  -0.166  -0.228
    1UNL    H12   41  -0.231  -0.049  -0.272
    1UNL    H13   42  -0.188  -0.217  -0.268
    1UNL    H14   43   0.396   0.086   0.037
    1UNL    H15   44   0.426  -0.197  -0.026
    1UNL    H16   45   0.715  -0.254  -0.007
    1UNL    H17   46   0.916  -0.164   0.062
    1UNL    H18   47   0.941   0.029   0.192
    1UNL    H19   48   0.750   0.160   0.261
    1UNL    H20   49   0.523   0.074   0.196
    1UNL    H21   50   0.262   0.342  -0.009
    1UNL    H22   51   0.064   0.385   0.040
    1UNL    H23   52  -0.277   0.286  -0.019
    1UNL    H24   53  -0.316   0.075  -0.090
    1UNL    H25   54  -0.353   0.126   0.147
    1UNL    H26   55  -0.204   0.035   0.184
   0.00000   0.00000   0.00000   0.00000   0.00000   0.00000   0.00000   0.00000   0.00000
Generated with MDTraj, t= 57.0
 55
    1UNL     C1    1  -0.631   0.053   0.164
    1UNL     C2    2  -0.553  -0.063   0.094
    1UNL     C3    3  -0.559  -0.038  -0.062
    1UNL     C4    4  -0.409  -0.076   0.154
    1UNL     C5    5  -0.358  -0.209   0.116
    1UNL     C6    6  -0.257  -0.234   0.028
    1UNL     C7    7  -0.189  -0.123  -0.052
    1UNL     C8    8  -0.201  -0.149  -0.200
    1UNL     O1    9  -0.048  -0.116  -0.016
    1UNL     C9   10  -0.006   0.011  -0.038
    1UNL    C10   11   0.125   0.064  -0.040
    1UNL    C11   12   0.231  -0.036  -0.058
    1UNL     O2   13   0.211  -0.148  -0.096
    1UNL    C12   14   0.362   0.003  -0.007
    1UNL    C13   15   0.463  -0.083  -0.001
    1UNL    C14   16   0.595  -0.058   0.048
    1UNL    C15   17   0.709  -0.133   0.003
    1UNL    C16   18   0.831  -0.115   0.055
    1UNL    C17   19   0.852  -0.034   0.160
    1UNL    C18   20   0.750   0.053   0.189
    1UNL    C19   21   0.627   0.043   0.138
    1UNL    C20   22   0.147   0.203  -0.017
    1UNL     O3   23   0.275   0.260  -0.009
    1UNL    C21   24   0.036   0.286  -0.026
    1UNL    C22   25  -0.095   0.237  -0.020
    1UNL     O4   26  -0.200   0.325  -0.014
    1UNL    C23   27  -0.111   0.100  -0.029
    1UNL    C24   28  -0.243   0.027  -0.018
    1UNL    C25   29  -0.312   0.041   0.117
    1UNL     H1   30  -0.639   0.029   0.268
    1UNL     H2   31  -0.727   0.070   0.116
    1UNL     H3   32  -0.578   0.149   0.148
    1UNL     H4   33  -0.602  -0.159   0.104
    1UNL     H5   34  -0.501  -0.107  -0.130
    1UNL     H6   35  -0.517   0.060  -0.081
    1UNL     H7   36  -0.664  -0.039  -0.091
    1UNL     H8   37  -0.418  -0.080   0.258
    1UNL     H9   38  -0.413  -0.294   0.154
    1UNL    H10   39  -0.231  -0.332  -0.012
    1UNL    H11   40  -0.303  -0.144  -0.235
    1UNL    H12   41  -0.140  -0.071  -0.246
    1UNL    H13   42  -0.154  -0.250  -0.222
    1UNL    H14   43   0.373   0.099   0.046
    1UNL    H15   44   0.435  -0.169  -0.062
    1UNL    H16   45   0.699  -0.199  -0.082
    1UNL    H17   46   0.914  -0.184   0.031
    1UNL    H18   47   0.938  -0.023   0.221
    1UNL    H19   48   0.773   0.138   0.255
    1UNL    H20   49   0.545   0.118   0.145
    1UNL    H21   50   0.268   0.356   0.018
    1UNL    H22   51   0.038   0.389  -0.006
    1UNL    H23   52  -0.284   0.293  -0.055
    1UNL    H24   53  -0.317   0.054  -0.099
    1UNL    H25   54  -0.369   0.138   0.101
    1UNL    H26   55  -0.240   0.055   0.194
   0.00000   0.00000   0.00000   0.00000   0.00000   0.00000   0.00000   0.00000   0.00000
Generated with MDTraj, t= 58.0
 55
    1UNL     C1    1  -0.656   0.033   0.157
    1UNL     C2    2  -0.570  -0.057   0.073
    1UNL     C3    3  -0.564  -0.013  -0.075
    1UNL     C4    4  -0.433  -0.074   0.139
    1UNL     C5    5  -0.370  -0.211   0.114
    1UNL     C6    6  -0.262  -0.233   0.040
    1UNL     C7    7  -0.193  -0.130  -0.043
    1UNL     C8    8  -0.203  -0.168  -0.191
    1UNL     O1    9  -0.048  -0.122  -0.010
    1UNL     C9   10  -0.006   0.013  -0.016
    1UNL    C10   11   0.124   0.069  -0.010
    1UNL    C11   12   0.237  -0.020  -0.024
    1UNL     O2   13   0.217  -0.133  -0.060
    1UNL    C12   14   0.379   0.012   0.002
    1UNL    C13   15   0.483  -0.073  -0.023
    1UNL    C14   16   0.615  -0.054   0.032
    1UNL    C15   17   0.722  -0.140  -0.013
    1UNL    C16   18   0.844  -0.138   0.046
    1UNL    C17   19   0.870  -0.037   0.140
    1UNL    C18   20   0.770   0.039   0.187
    1UNL    C19   21   0.647   0.038   0.132
    1UNL    C20   22   0.140   0.210  -0.009
    1UNL     O3   23   0.270   0.270  -0.007
    1UNL    C21   24   0.030   0.297  -0.008
    1UNL    C22   25  -0.100   0.241  -0.021
    1UNL     O4   26  -0.211   0.321  -0.040
    1UNL    C23   27  -0.116   0.100  -0.017
    1UNL    C24   28  -0.243   0.018  -0.020
    1UNL    C25   29  -0.329   0.037   0.103
    1UNL     H1   30  -0.653  -0.010   0.256
    1UNL     H2   31  -0.758   0.036   0.120
    1UNL     H3   32  -0.620   0.138   0.155
    1UNL     H4   33  -0.614  -0.159   0.082
    1UNL     H5   34  -0.480  -0.061  -0.135
    1UNL     H6   35  -0.526   0.092  -0.080
    1UNL     H7   36  -0.652  -0.017  -0.129
    1UNL     H8   37  -0.453  -0.081   0.248
    1UNL     H9   38  -0.420  -0.304   0.141
    1UNL    H10   39  -0.232  -0.333   0.020
    1UNL    H11   40  -0.308  -0.165  -0.211
    1UNL    H12   41  -0.147  -0.097  -0.256
    1UNL    H13   42  -0.165  -0.273  -0.194
    1UNL    H14   43   0.397   0.097   0.061
    1UNL    H15   44   0.460  -0.150  -0.093
    1UNL    H16   45   0.712  -0.215  -0.091
    1UNL    H17   46   0.932  -0.190   0.020
    1UNL    H18   47   0.971  -0.029   0.186
    1UNL    H19   48   0.802   0.123   0.244
    1UNL    H20   49   0.578   0.116   0.138
    1UNL    H21   50   0.266   0.368  -0.036
    1UNL    H22   51   0.043   0.406  -0.010
    1UNL    H23   52  -0.290   0.279  -0.082
    1UNL    H24   53  -0.294   0.056  -0.113
    1UNL    H25   54  -0.379   0.138   0.084
    1UNL    H26   55  -0.257   0.051   0.182
   0.00000   0.00000   0.00000   0.00000   0.00000   0.00000   0.00000   0.00000   0.00000
Generated with MDTraj, t= 59.0
 55
    1UNL     C1    1  -0.657   0.037   0.135
    1UNL     C2    2  -0.567  -0.059   0.061
    1UNL     C3    3  -0.549  -0.025  -0.086
    1UNL     C4    4  -0.432  -0.072   0.134
    1UNL     C5    5  -0.370  -0.208   0.118
    1UNL     C6    6  -0.270  -0.235   0.035
    1UNL     C7    7  -0.191  -0.128  -0.047
    1UNL     C8    8  -0.191  -0.170  -0.191
    1UNL     O1    9  -0.052  -0.119  -0.005
    1UNL     C9   10  -0.014   0.014  -0.006
    1UNL    C10   11   0.121   0.064  -0.005
    1UNL    C11   12   0.235  -0.026  -0.003
    1UNL     O2   13   0.215  -0.135  -0.049
    1UNL    C12   14   0.368   0.016   0.035
    1UNL    C13   15   0.472  -0.072   0.013
    1UNL    C14   16   0.614  -0.044   0.041
    1UNL    C15   17   0.701  -0.142  -0.018
    1UNL    C16   18   0.833  -0.134   0.010
    1UNL    C17   19   0.880  -0.038   0.100
    1UNL    C18   20   0.801   0.050   0.164
    1UNL    C19   21   0.666   0.044   0.141
    1UNL    C20   22   0.143   0.205  -0.011
    1UNL     O3   23   0.268   0.256   0.015
    1UNL    C21   24   0.031   0.291  -0.019
    1UNL    C22   25  -0.099   0.243  -0.028
    1UNL     O4   26  -0.209   0.334  -0.037
    1UNL    C23   27  -0.125   0.103  -0.023
    1UNL    C24   28  -0.246   0.016  -0.022
    1UNL    C25   29  -0.331   0.034   0.101
    1UNL     H1   30  -0.671   0.013   0.240
    1UNL     H2   31  -0.758   0.034   0.095
    1UNL     H3   32  -0.634   0.144   0.124
    1UNL     H4   33  -0.622  -0.157   0.079
    1UNL     H5   34  -0.463  -0.072  -0.140
    1UNL     H6   35  -0.522   0.084  -0.101
    1UNL     H7   36  -0.636  -0.045  -0.139
    1UNL     H8   37  -0.461  -0.071   0.249
    1UNL     H9   38  -0.410  -0.283   0.183
    1UNL    H10   39  -0.236  -0.337   0.047
    1UNL    H11   40  -0.292  -0.198  -0.214
    1UNL    H12   41  -0.174  -0.070  -0.245
    1UNL    H13   42  -0.109  -0.239  -0.206
    1UNL    H14   43   0.381   0.120   0.057
    1UNL    H15   44   0.440  -0.175  -0.010
    1UNL    H16   45   0.665  -0.234  -0.061
    1UNL    H17   46   0.907  -0.214  -0.015
    1UNL    H18   47   0.981  -0.038   0.129
    1UNL    H19   48   0.832   0.122   0.239
    1UNL    H20   49   0.591   0.104   0.199
    1UNL    H21   50   0.274   0.352  -0.021
    1UNL    H22   51   0.046   0.398  -0.010
    1UNL    H23   52  -0.289   0.278  -0.026
    1UNL    H24   53  -0.297   0.050  -0.117
    1UNL    H25   54  -0.394   0.130   0.100
    1UNL    H26   55  -0.259   0.045   0.181
   0.00000   0.00000   0.00000   0.00000   0.00000   0.00000   0.00000   0.00000   0.00000
Generated with MDTraj, t= 60.0
 55
    1UNL     C1    1  -0.638   0.069   0.100
    1UNL     C2    2  -0.568  -0.058   0.058
    1UNL     C3    3  -0.562  -0.070  -0.093
    1UNL     C4    4  -0.427  -0.071   0.131
    1UNL     C5    5  -0.364  -0.209   0.109
    1UNL     C6    6  -0.254  -0.222   0.035
    1UNL     C7    7  -0.182  -0.122  -0.051
    1UNL     C8    8  -0.186  -0.152  -0.199
    1UNL     O1    9  -0.043  -0.112  -0.016
    1UNL     C9   10  -0.009   0.022  -0.003
    1UNL    C10   11   0.122   0.068   0.009
    1UNL    C11   12   0.228  -0.032   0.010
    1UNL     O2   13   0.208  -0.150  -0.018
    1UNL    C12   14   0.363   0.002   0.045
    1UNL    C13   15   0.461  -0.097   0.045
    1UNL    C14   16   0.604  -0.076   0.059
    1UNL    C15   17   0.698  -0.155  -0.009
    1UNL    C16   18   0.834  -0.118  -0.008
    1UNL    C17   19   0.881  -0.012   0.064
    1UNL    C18   20   0.787   0.067   0.125
    1UNL    C19   21   0.650   0.033   0.128
    1UNL    C20   22   0.139   0.208   0.020
    1UNL     O3   23   0.270   0.257   0.018
    1UNL    C21   24   0.029   0.294  -0.002
    1UNL    C22   25  -0.098   0.242  -0.018
    1UNL     O4   26  -0.209   0.321  -0.038
    1UNL    C23   27  -0.118   0.107  -0.016
    1UNL    C24   28  -0.244   0.025  -0.023
    1UNL    C25   29  -0.331   0.039   0.103
    1UNL     H1   30  -0.659   0.068   0.208
    1UNL     H2   31  -0.738   0.079   0.060
    1UNL     H3   32  -0.591   0.162   0.073
    1UNL     H4   33  -0.637  -0.140   0.102
    1UNL     H5   34  -0.507  -0.156  -0.124
    1UNL     H6   35  -0.519   0.019  -0.142
    1UNL     H7   36  -0.669  -0.082  -0.118
    1UNL     H8   37  -0.457  -0.073   0.250
    1UNL     H9   38  -0.383  -0.286   0.185
    1UNL    H10   39  -0.205  -0.317   0.035
    1UNL    H11   40  -0.260  -0.091  -0.256
    1UNL    H12   41  -0.088  -0.111  -0.235
    1UNL    H13   42  -0.184  -0.257  -0.216
    1UNL    H14   43   0.389   0.110   0.051
    1UNL    H15   44   0.424  -0.196   0.045
    1UNL    H16   45   0.668  -0.248  -0.055
    1UNL    H17   46   0.905  -0.183  -0.045
    1UNL    H18   47   0.984   0.031   0.066
    1UNL    H19   48   0.819   0.156   0.179
    1UNL    H20   49   0.585   0.093   0.184
    1UNL    H21   50   0.276   0.356   0.018
    1UNL    H22   51   0.048   0.394  -0.023
    1UNL    H23   52  -0.297   0.277  -0.033
    1UNL    H24   53  -0.305   0.049  -0.113
    1UNL    H25   54  -0.385   0.138   0.102
    1UNL    H26   55  -0.271   0.043   0.195
   0.00000   0.00000   0.00000   0.00000   0.00000   0.00000   0.00000   0.00000   0.00000
Generated with MDTraj, t= 61.0
 55
    1UNL     C1    1  -0.622   0.092   0.060
    1UNL     C2    2  -0.570  -0.055   0.060
    1UNL     C3    3  -0.559  -0.099  -0.091
    1UNL     C4    4  -0.432  -0.070   0.131
    1UNL     C5    5  -0.371  -0.206   0.111
    1UNL     C6    6  -0.267  -0.222   0.028
    1UNL     C7    7  -0.203  -0.115  -0.061
    1UNL     C8    8  -0.189  -0.144  -0.213
    1UNL     O1    9  -0.059  -0.120  -0.021
    1UNL     C9   10  -0.015   0.010  -0.007
    1UNL    C10   11   0.119   0.049   0.013
    1UNL    C11   12   0.227  -0.050   0.026
    1UNL     O2   13   0.199  -0.168   0.024
    1UNL    C12   14   0.365  -0.002   0.045
    1UNL    C13   15   0.466  -0.093   0.048
    1UNL    C14   16   0.605  -0.059   0.052
    1UNL    C15   17   0.699  -0.144  -0.007
    1UNL    C16   18   0.839  -0.120  -0.000
    1UNL    C17   19   0.878   0.000   0.050
    1UNL    C18   20   0.783   0.089   0.104
    1UNL    C19   21   0.652   0.063   0.099
    1UNL    C20   22   0.144   0.187   0.027
    1UNL     O3   23   0.275   0.237   0.042
    1UNL    C21   24   0.041   0.278   0.014
    1UNL    C22   25  -0.091   0.245  -0.013
    1UNL     O4   26  -0.181   0.341  -0.021
    1UNL    C23   27  -0.120   0.105  -0.019
    1UNL    C24   28  -0.254   0.034  -0.026
    1UNL    C25   29  -0.326   0.043   0.111
    1UNL     H1   30  -0.633   0.114   0.167
    1UNL     H2   31  -0.721   0.110   0.017
    1UNL     H3   32  -0.547   0.153   0.016
    1UNL     H4   33  -0.647  -0.113   0.125
    1UNL     H5   34  -0.542  -0.203  -0.097
    1UNL     H6   35  -0.477  -0.052  -0.138
    1UNL     H7   36  -0.660  -0.075  -0.136
    1UNL     H8   37  -0.461  -0.076   0.250
    1UNL     H9   38  -0.413  -0.291   0.161
    1UNL    H10   39  -0.203  -0.307   0.008
    1UNL    H11   40  -0.279  -0.205  -0.250
    1UNL    H12   41  -0.196  -0.066  -0.289
    1UNL    H13   42  -0.101  -0.203  -0.228
    1UNL    H14   43   0.393   0.099   0.039
    1UNL    H15   44   0.429  -0.196   0.033
    1UNL    H16   45   0.667  -0.230  -0.060
    1UNL    H17   46   0.906  -0.188  -0.063
    1UNL    H18   47   0.980   0.026   0.042
    1UNL    H19   48   0.812   0.189   0.126
    1UNL    H20   49   0.584   0.146   0.123
    1UNL    H21   50   0.272   0.329   0.069
    1UNL    H22   51   0.060   0.387  -0.003
    1UNL    H23   52  -0.268   0.294  -0.027
    1UNL    H24   53  -0.315   0.073  -0.108
    1UNL    H25   54  -0.373   0.141   0.128
    1UNL    H26   55  -0.249   0.033   0.191
   0.00000   0.00000   0.00000   0.00000   0.00000   0.00000   0.00000   0.00000   0.00000
Generated with MDTraj, t= 62.0
 55
    1UNL     C1    1  -0.611   0.112   0.040
    1UNL     C2    2  -0.578  -0.039   0.038
    1UNL     C3    3  -0.556  -0.090  -0.107
    1UNL     C4    4  -0.444  -0.063   0.124
    1UNL     C5    5  -0.377  -0.200   0.112
    1UNL     C6    6  -0.274  -0.226   0.033
    1UNL     C7    7  -0.202  -0.122  -0.063
    1UNL     C8    8  -0.223  -0.153  -0.212
    1UNL     O1    9  -0.059  -0.127  -0.032
    1UNL     C9   10  -0.010  -0.001   0.001
    1UNL    C10   11   0.126   0.047   0.019
    1UNL    C11   12   0.233  -0.048   0.045
    1UNL     O2   13   0.209  -0.167   0.067
    1UNL    C12   14   0.374  -0.016   0.037
    1UNL    C13   15   0.475  -0.102   0.025
    1UNL    C14   16   0.612  -0.062   0.025
    1UNL    C15   17   0.712  -0.156   0.012
    1UNL    C16   18   0.844  -0.113   0.013
    1UNL    C17   19   0.876   0.020   0.042
    1UNL    C18   20   0.777   0.113   0.068
    1UNL    C19   21   0.648   0.069   0.067
    1UNL    C20   22   0.147   0.188   0.031
    1UNL     O3   23   0.270   0.239   0.069
    1UNL    C21   24   0.039   0.272   0.024
    1UNL    C22   25  -0.094   0.233   0.005
    1UNL     O4   26  -0.186   0.333  -0.004
    1UNL    C23   27  -0.114   0.095  -0.012
    1UNL    C24   28  -0.251   0.028  -0.029
    1UNL    C25   29  -0.328   0.041   0.110
    1UNL     H1   30  -0.599   0.149   0.143
    1UNL     H2   31  -0.716   0.131   0.016
    1UNL     H3   32  -0.543   0.163  -0.025
    1UNL     H4   33  -0.657  -0.091   0.105
    1UNL     H5   34  -0.513  -0.187  -0.112
    1UNL     H6   35  -0.489  -0.032  -0.160
    1UNL     H7   36  -0.656  -0.097  -0.162
    1UNL     H8   37  -0.476  -0.069   0.238
    1UNL     H9   38  -0.416  -0.292   0.157
    1UNL    H10   39  -0.228  -0.323   0.022
    1UNL    H11   40  -0.304  -0.097  -0.263
    1UNL    H12   41  -0.144  -0.117  -0.273
    1UNL    H13   42  -0.234  -0.260  -0.233
    1UNL    H14   43   0.398   0.087   0.015
    1UNL    H15   44   0.443  -0.201   0.009
    1UNL    H16   45   0.674  -0.256  -0.016
    1UNL    H17   46   0.917  -0.186   0.001
    1UNL    H18   47   0.984   0.042   0.057
    1UNL    H19   48   0.809   0.213   0.101
    1UNL    H20   49   0.567   0.135   0.087
    1UNL    H21   50   0.265   0.333   0.078
    1UNL    H22   51   0.053   0.373   0.041
    1UNL    H23   52  -0.262   0.284  -0.042
    1UNL    H24   53  -0.314   0.067  -0.109
    1UNL    H25   54  -0.356   0.141   0.138
    1UNL    H26   55  -0.251   0.007   0.185
   0.00000   0.00000   0.00000   0.00000   0.00000   0.00000   0.00000   0.00000   0.00000
Generated with MDTraj, t= 63.0
 55
    1UNL     C1    1  -0.631   0.109   0.049
    1UNL     C2    2  -0.579  -0.029   0.018
    1UNL     C3    3  -0.547  -0.060  -0.130
    1UNL     C4    4  -0.449  -0.058   0.115
    1UNL     C5    5  -0.392  -0.203   0.102
    1UNL     C6    6  -0.285  -0.233   0.031
    1UNL     C7    7  -0.193  -0.132  -0.052
    1UNL     C8    8  -0.192  -0.165  -0.201
    1UNL     O1    9  -0.057  -0.133  -0.001
    1UNL     C9   10  -0.008   0.003   0.011
    1UNL    C10   11   0.124   0.041   0.036
    1UNL    C11   12   0.226  -0.060   0.033
    1UNL     O2   13   0.205  -0.179   0.059
    1UNL    C12   14   0.361  -0.016   0.005
    1UNL    C13   15   0.469  -0.085   0.048
    1UNL    C14   16   0.609  -0.054   0.032
    1UNL    C15   17   0.711  -0.152   0.027
    1UNL    C16   18   0.839  -0.118   0.024
    1UNL    C17   19   0.885   0.019   0.023
    1UNL    C18   20   0.783   0.119   0.027
    1UNL    C19   21   0.648   0.082   0.029
    1UNL    C20   22   0.149   0.183   0.053
    1UNL     O3   23   0.274   0.230   0.090
    1UNL    C21   24   0.043   0.276   0.043
    1UNL    C22   25  -0.090   0.234   0.018
    1UNL     O4   26  -0.193   0.323  -0.005
    1UNL    C23   27  -0.108   0.099  -0.005
    1UNL    C24   28  -0.237   0.024  -0.032
    1UNL    C25   29  -0.333   0.044   0.097
    1UNL     H1   30  -0.636   0.145   0.153
    1UNL     H2   31  -0.737   0.112   0.024
    1UNL     H3   32  -0.586   0.190  -0.007
    1UNL     H4   33  -0.658  -0.097   0.063
    1UNL     H5   34  -0.484  -0.144  -0.154
    1UNL     H6   35  -0.494   0.023  -0.177
    1UNL     H7   36  -0.642  -0.077  -0.181
    1UNL     H8   37  -0.481  -0.051   0.226
    1UNL     H9   38  -0.414  -0.275   0.180
    1UNL    H10   39  -0.246  -0.333   0.033
    1UNL    H11   40  -0.277  -0.215  -0.248
    1UNL    H12   41  -0.181  -0.076  -0.258
    1UNL    H13   42  -0.107  -0.234  -0.224
    1UNL    H14   43   0.380   0.047  -0.083
    1UNL    H15   44   0.450  -0.181   0.100
    1UNL    H16   45   0.679  -0.252   0.031
    1UNL    H17   46   0.914  -0.197   0.027
    1UNL    H18   47   0.984   0.043   0.047
    1UNL    H19   48   0.817   0.219   0.038
    1UNL    H20   49   0.579   0.163   0.051
    1UNL    H21   50   0.279   0.325   0.081
    1UNL    H22   51   0.070   0.382   0.045
    1UNL    H23   52  -0.266   0.286  -0.057
    1UNL    H24   53  -0.290   0.054  -0.121
    1UNL    H25   54  -0.371   0.142   0.101
    1UNL    H26   55  -0.261   0.035   0.183
   0.00000   0.00000   0.00000   0.00000   0.00000   0.00000   0.00000   0.00000   0.00000
Generated with MDTraj, t= 64.0
 55
    1UNL     C1    1  -0.662   0.078   0.051
    1UNL     C2    2  -0.578  -0.042   0.011
    1UNL     C3    3  -0.550  -0.030  -0.148
    1UNL     C4    4  -0.459  -0.064   0.106
    1UNL     C5    5  -0.405  -0.205   0.087
    1UNL     C6    6  -0.292  -0.227   0.021
    1UNL     C7    7  -0.197  -0.123  -0.041
    1UNL     C8    8  -0.182  -0.156  -0.192
    1UNL     O1    9  -0.055  -0.129   0.010
    1UNL     C9   10  -0.011   0.003   0.030
    1UNL    C10   11   0.128   0.042   0.051
    1UNL    C11   12   0.237  -0.058   0.050
    1UNL     O2   13   0.204  -0.179   0.041
    1UNL    C12   14   0.371  -0.020   0.071
    1UNL    C13   15   0.475  -0.100   0.048
    1UNL    C14   16   0.613  -0.049   0.044
    1UNL    C15   17   0.721  -0.142   0.054
    1UNL    C16   18   0.853  -0.112   0.035
    1UNL    C17   19   0.885   0.016  -0.005
    1UNL    C18   20   0.782   0.110  -0.020
    1UNL    C19   21   0.647   0.080  -0.002
    1UNL    C20   22   0.155   0.182   0.066
    1UNL     O3   23   0.277   0.237   0.087
    1UNL    C21   24   0.048   0.271   0.035
    1UNL    C22   25  -0.079   0.233   0.008
    1UNL     O4   26  -0.180   0.327  -0.011
    1UNL    C23   27  -0.112   0.095   0.001
    1UNL    C24   28  -0.245   0.022  -0.022
    1UNL    C25   29  -0.345   0.042   0.099
    1UNL     H1   30  -0.722   0.067   0.141
    1UNL     H2   31  -0.740   0.098  -0.022
    1UNL     H3   32  -0.608   0.173   0.069
    1UNL     H4   33  -0.654  -0.122   0.028
    1UNL     H5   34  -0.500  -0.108  -0.206
    1UNL     H6   35  -0.484   0.061  -0.155
    1UNL     H7   36  -0.644  -0.013  -0.185
    1UNL     H8   37  -0.502  -0.060   0.206
    1UNL     H9   38  -0.476  -0.275   0.129
    1UNL    H10   39  -0.245  -0.325   0.032
    1UNL    H11   40  -0.262  -0.128  -0.253
    1UNL    H12   41  -0.092  -0.112  -0.235
    1UNL    H13   42  -0.190  -0.270  -0.195
    1UNL    H14   43   0.390   0.083   0.092
    1UNL    H15   44   0.466  -0.197   0.006
    1UNL    H16   45   0.675  -0.244   0.062
    1UNL    H17   46   0.932  -0.190   0.043
    1UNL    H18   47   0.991   0.030  -0.040
    1UNL    H19   48   0.802   0.217  -0.037
    1UNL    H20   49   0.568   0.148  -0.028
    1UNL    H21   50   0.275   0.337   0.091
    1UNL    H22   51   0.070   0.374   0.017
    1UNL    H23   52  -0.260   0.272  -0.022
    1UNL    H24   53  -0.284   0.068  -0.113
    1UNL    H25   54  -0.385   0.139   0.092
    1UNL    H26   55  -0.277   0.040   0.187
   0.00000   0.00000   0.00000   0.00000   0.00000   0.00000   0.00000   0.00000   0.00000
Generated with MDTraj, t= 65.0
 55
    1UNL     C1    1  -0.668   0.056   0.054
    1UNL     C2    2  -0.576  -0.047   0.001
    1UNL     C3    3  -0.537   0.000  -0.142
    1UNL     C4    4  -0.457  -0.067   0.093
    1UNL     C5    5  -0.388  -0.205   0.075
    1UNL     C6    6  -0.274  -0.225   0.014
    1UNL     C7    7  -0.185  -0.120  -0.041
    1UNL     C8    8  -0.160  -0.156  -0.189
    1UNL     O1    9  -0.057  -0.128   0.019
    1UNL     C9   10  -0.007   0.004   0.038
    1UNL    C10   11   0.127   0.042   0.058
    1UNL    C11   12   0.235  -0.057   0.063
    1UNL     O2   13   0.203  -0.178   0.060
    1UNL    C12   14   0.368  -0.012   0.055
    1UNL    C13   15   0.469  -0.101   0.049
    1UNL    C14   16   0.607  -0.060   0.034
    1UNL    C15   17   0.707  -0.144   0.071
    1UNL    C16   18   0.842  -0.110   0.046
    1UNL    C17   19   0.871   0.017  -0.015
    1UNL    C18   20   0.767   0.101  -0.044
    1UNL    C19   21   0.639   0.062  -0.021
    1UNL    C20   22   0.149   0.184   0.070
    1UNL     O3   23   0.276   0.240   0.080
    1UNL    C21   24   0.043   0.274   0.055
    1UNL    C22   25  -0.084   0.233   0.014
    1UNL     O4   26  -0.182   0.321  -0.015
    1UNL    C23   27  -0.109   0.097   0.007
    1UNL    C24   28  -0.241   0.030  -0.022
    1UNL    C25   29  -0.347   0.051   0.093
    1UNL     H1   30  -0.687   0.022   0.155
    1UNL     H2   31  -0.765   0.062   0.003
    1UNL     H3   32  -0.610   0.152   0.061
    1UNL     H4   33  -0.641  -0.134   0.000
    1UNL     H5   34  -0.479  -0.076  -0.195
    1UNL     H6   35  -0.473   0.092  -0.130
    1UNL     H7   36  -0.621   0.017  -0.196
    1UNL     H8   37  -0.492  -0.071   0.189
    1UNL     H9   38  -0.455  -0.286   0.100
    1UNL    H10   39  -0.246  -0.327  -0.001
    1UNL    H11   40  -0.246  -0.200  -0.232
    1UNL    H12   41  -0.138  -0.056  -0.232
    1UNL    H13   42  -0.087  -0.243  -0.196
    1UNL    H14   43   0.389   0.093   0.050
    1UNL    H15   44   0.462  -0.211   0.052
    1UNL    H16   45   0.685  -0.237   0.107
    1UNL    H17   46   0.912  -0.183   0.058
    1UNL    H18   47   0.973   0.035  -0.037
    1UNL    H19   48   0.793   0.197  -0.080
    1UNL    H20   49   0.560   0.130  -0.046
    1UNL    H21   50   0.275   0.341   0.090
    1UNL    H22   51   0.071   0.376   0.044
    1UNL    H23   52  -0.272   0.282  -0.024
    1UNL    H24   53  -0.284   0.061  -0.117
    1UNL    H25   54  -0.388   0.146   0.073
    1UNL    H26   55  -0.298   0.055   0.192
   0.00000   0.00000   0.00000   0.00000   0.00000   0.00000   0.00000   0.00000   0.00000
Generated with MDTraj, t= 66.0
 55
    1UNL     C1    1  -0.661   0.063   0.068
    1UNL     C2    2  -0.571  -0.047   0.004
    1UNL     C3    3  -0.520  -0.005  -0.142
    1UNL     C4    4  -0.450  -0.082   0.091
    1UNL     C5    5  -0.388  -0.213   0.060
    1UNL     C6    6  -0.269  -0.234   0.013
    1UNL     C7    7  -0.188  -0.120  -0.049
    1UNL     C8    8  -0.160  -0.147  -0.203
    1UNL     O1    9  -0.061  -0.123   0.016
    1UNL     C9   10  -0.012   0.008   0.024
    1UNL    C10   11   0.124   0.048   0.048
    1UNL    C11   12   0.228  -0.053   0.072
    1UNL     O2   13   0.213  -0.168   0.123
    1UNL    C12   14   0.356  -0.011   0.025
    1UNL    C13   15   0.467  -0.084   0.052
    1UNL    C14   16   0.607  -0.059   0.021
    1UNL    C15   17   0.702  -0.146   0.078
    1UNL    C16   18   0.835  -0.114   0.049
    1UNL    C17   19   0.874   0.005  -0.008
    1UNL    C18   20   0.778   0.090  -0.057
    1UNL    C19   21   0.646   0.056  -0.041
    1UNL    C20   22   0.148   0.189   0.055
    1UNL     O3   23   0.272   0.229   0.103
    1UNL    C21   24   0.045   0.283   0.038
    1UNL    C22   25  -0.091   0.240   0.015
    1UNL     O4   26  -0.192   0.332   0.001
    1UNL    C23   27  -0.112   0.103   0.004
    1UNL    C24   28  -0.244   0.028  -0.023
    1UNL    C25   29  -0.344   0.029   0.094
    1UNL     H1   30  -0.677   0.042   0.174
    1UNL     H2   31  -0.758   0.072   0.017
    1UNL     H3   32  -0.603   0.158   0.060
    1UNL     H4   33  -0.628  -0.137  -0.007
    1UNL     H5   34  -0.458  -0.069  -0.206
    1UNL     H6   35  -0.472   0.093  -0.139
    1UNL     H7   36  -0.606   0.009  -0.204
    1UNL     H8   37  -0.470  -0.082   0.189
    1UNL     H9   38  -0.439  -0.305   0.089
    1UNL    H10   39  -0.238  -0.332  -0.023
    1UNL    H11   40  -0.236  -0.101  -0.265
    1UNL    H12   41  -0.062  -0.102  -0.229
    1UNL    H13   42  -0.181  -0.253  -0.217
    1UNL    H14   43   0.360   0.071  -0.046
    1UNL    H15   44   0.460  -0.161   0.124
    1UNL    H16   45   0.664  -0.237   0.133
    1UNL    H17   46   0.905  -0.199   0.078
    1UNL    H18   47   0.976   0.042  -0.008
    1UNL    H19   48   0.803   0.186  -0.107
    1UNL    H20   49   0.575   0.137  -0.055
    1UNL    H21   50   0.277   0.330   0.088
    1UNL    H22   51   0.058   0.391   0.039
    1UNL    H23   52  -0.279   0.284  -0.001
    1UNL    H24   53  -0.287   0.065  -0.115
    1UNL    H25   54  -0.402   0.118   0.103
    1UNL    H26   55  -0.282   0.020   0.182
   0.00000   0.00000   0.00000   0.00000   0.00000   0.00000   0.00000   0.00000   0.00000
Generated with MDTraj, t= 67.0
 55
    1UNL     C1    1  -0.645   0.078   0.070
    1UNL     C2    2  -0.584  -0.043   0.017
    1UNL     C3    3  -0.550  -0.039  -0.128
    1UNL     C4    4  -0.451  -0.088   0.093
    1UNL     C5    5  -0.392  -0.218   0.046
    1UNL     C6    6  -0.272  -0.228  -0.011
    1UNL     C7    7  -0.188  -0.110  -0.067
    1UNL     C8    8  -0.182  -0.124  -0.217
    1UNL     O1    9  -0.050  -0.116  -0.016
    1UNL     C9   10  -0.009   0.010   0.026
    1UNL    C10   11   0.124   0.052   0.056
    1UNL    C11   12   0.239  -0.043   0.084
    1UNL     O2   13   0.220  -0.151   0.147
    1UNL    C12   14   0.376  -0.006   0.066
    1UNL    C13   15   0.473  -0.096   0.069
    1UNL    C14   16   0.612  -0.059   0.032
    1UNL    C15   17   0.714  -0.144   0.080
    1UNL    C16   18   0.852  -0.122   0.050
    1UNL    C17   19   0.886  -0.014  -0.019
    1UNL    C18   20   0.785   0.076  -0.069
    1UNL    C19   21   0.650   0.051  -0.045
    1UNL    C20   22   0.137   0.196   0.067
    1UNL     O3   23   0.268   0.247   0.079
    1UNL    C21   24   0.031   0.281   0.051
    1UNL    C22   25  -0.101   0.241   0.020
    1UNL     O4   26  -0.207   0.322  -0.007
    1UNL    C23   27  -0.117   0.100   0.009
    1UNL    C24   28  -0.244   0.025  -0.030
    1UNL    C25   29  -0.339   0.020   0.091
    1UNL     H1   30  -0.687   0.057   0.171
    1UNL     H2   31  -0.732   0.117   0.013
    1UNL     H3   32  -0.577   0.162   0.086
    1UNL     H4   33  -0.654  -0.123   0.018
    1UNL     H5   34  -0.501  -0.127  -0.164
    1UNL     H6   35  -0.497   0.045  -0.159
    1UNL     H7   36  -0.645  -0.039  -0.191
    1UNL     H8   37  -0.464  -0.095   0.195
    1UNL     H9   38  -0.446  -0.310   0.064
    1UNL    H10   39  -0.206  -0.312  -0.014
    1UNL    H11   40  -0.282  -0.155  -0.258
    1UNL    H12   41  -0.161  -0.023  -0.256
    1UNL    H13   42  -0.109  -0.196  -0.241
    1UNL    H14   43   0.408   0.094   0.051
    1UNL    H15   44   0.448  -0.200   0.093
    1UNL    H16   45   0.681  -0.237   0.120
    1UNL    H17   46   0.929  -0.187   0.078
    1UNL    H18   47   0.989   0.003  -0.049
    1UNL    H19   48   0.815   0.165  -0.118
    1UNL    H20   49   0.579   0.115  -0.096
    1UNL    H21   50   0.255   0.345   0.091
    1UNL    H22   51   0.048   0.385   0.067
    1UNL    H23   52  -0.268   0.264  -0.059
    1UNL    H24   53  -0.284   0.073  -0.118
    1UNL    H25   54  -0.377   0.118   0.113
    1UNL    H26   55  -0.276  -0.004   0.173
   0.00000   0.00000   0.00000   0.00000   0.00000   0.00000   0.00000   0.00000   0.00000
Generated with MDTraj, t= 68.0
 55
    1UNL     C1    1  -0.629   0.075   0.079
    1UNL     C2    2  -0.565  -0.064   0.032
    1UNL     C3    3  -0.544  -0.061  -0.126
    1UNL     C4    4  -0.436  -0.092   0.097
    1UNL     C5    5  -0.372  -0.218   0.046
    1UNL     C6    6  -0.258  -0.227  -0.020
    1UNL     C7    7  -0.174  -0.117  -0.068
    1UNL     C8    8  -0.148  -0.128  -0.218
    1UNL     O1    9  -0.045  -0.109  -0.000
    1UNL     C9   10  -0.004   0.024   0.007
    1UNL    C10   11   0.124   0.063   0.048
    1UNL    C11   12   0.227  -0.038   0.069
    1UNL     O2   13   0.199  -0.157   0.100
    1UNL    C12   14   0.365  -0.001   0.063
    1UNL    C13   15   0.462  -0.084   0.082
    1UNL    C14   16   0.599  -0.053   0.056
    1UNL    C15   17   0.693  -0.145   0.093
    1UNL    C16   18   0.822  -0.134   0.055
    1UNL    C17   19   0.856  -0.035  -0.038
    1UNL    C18   20   0.762   0.062  -0.068
    1UNL    C19   21   0.632   0.053  -0.031
    1UNL    C20   22   0.140   0.199   0.060
    1UNL     O3   23   0.267   0.254   0.092
    1UNL    C21   24   0.033   0.290   0.039
    1UNL    C22   25  -0.093   0.248   0.010
    1UNL     O4   26  -0.205   0.333   0.014
    1UNL    C23   27  -0.108   0.113  -0.010
    1UNL    C24   28  -0.235   0.030  -0.032
    1UNL    C25   29  -0.329   0.017   0.099
    1UNL     H1   30  -0.611   0.091   0.189
    1UNL     H2   31  -0.739   0.073   0.070
    1UNL     H3   32  -0.592   0.165   0.030
    1UNL     H4   33  -0.634  -0.145   0.043
    1UNL     H5   34  -0.485  -0.139  -0.167
    1UNL     H6   35  -0.497   0.030  -0.147
    1UNL     H7   36  -0.643  -0.055  -0.185
    1UNL     H8   37  -0.456  -0.113   0.203
    1UNL     H9   38  -0.421  -0.307   0.088
    1UNL    H10   39  -0.208  -0.324  -0.019
    1UNL    H11   40  -0.237  -0.096  -0.282
    1UNL    H12   41  -0.069  -0.055  -0.244
    1UNL    H13   42  -0.114  -0.222  -0.244
    1UNL    H14   43   0.391   0.101   0.043
    1UNL    H15   44   0.438  -0.186   0.099
    1UNL    H16   45   0.667  -0.230   0.152
    1UNL    H17   46   0.886  -0.221   0.082
    1UNL    H18   47   0.955  -0.025  -0.071
    1UNL    H19   48   0.800   0.143  -0.129
    1UNL    H20   49   0.555   0.119  -0.068
    1UNL    H21   50   0.251   0.336   0.139
    1UNL    H22   51   0.051   0.396   0.052
    1UNL    H23   52  -0.290   0.308  -0.030
    1UNL    H24   53  -0.298   0.060  -0.115
    1UNL    H25   54  -0.371   0.116   0.122
    1UNL    H26   55  -0.267   0.002   0.183
   0.00000   0.00000   0.00000   0.00000   0.00000   0.00000   0.00000   0.00000   0.00000
Generated with MDTraj, t= 69.0
 55
    1UNL     C1    1  -0.639   0.043   0.084
    1UNL     C2    2  -0.556  -0.072   0.032
    1UNL     C3    3  -0.538  -0.059  -0.124
    1UNL     C4    4  -0.429  -0.093   0.110
    1UNL     C5    5  -0.359  -0.226   0.062
    1UNL     C6    6  -0.247  -0.227  -0.012
    1UNL     C7    7  -0.182  -0.102  -0.067
    1UNL     C8    8  -0.169  -0.116  -0.219
    1UNL     O1    9  -0.045  -0.100  -0.018
    1UNL     C9   10  -0.011   0.028   0.009
    1UNL    C10   11   0.114   0.067   0.059
    1UNL    C11   12   0.220  -0.034   0.081
    1UNL     O2   13   0.204  -0.159   0.071
    1UNL    C12   14   0.361   0.007   0.067
    1UNL    C13   15   0.457  -0.081   0.080
    1UNL    C14   16   0.600  -0.069   0.045
    1UNL    C15   17   0.698  -0.163   0.087
    1UNL    C16   18   0.825  -0.148   0.051
    1UNL    C17   19   0.873  -0.036  -0.019
    1UNL    C18   20   0.786   0.053  -0.067
    1UNL    C19   21   0.653   0.039  -0.031
    1UNL    C20   22   0.134   0.211   0.065
    1UNL     O3   23   0.257   0.268   0.098
    1UNL    C21   24   0.024   0.296   0.052
    1UNL    C22   25  -0.097   0.255   0.009
    1UNL     O4   26  -0.202   0.342  -0.021
    1UNL    C23   27  -0.125   0.116  -0.006
    1UNL    C24   28  -0.246   0.032  -0.031
    1UNL    C25   29  -0.326   0.024   0.103
    1UNL     H1   30  -0.644   0.031   0.196
    1UNL     H2   31  -0.741   0.031   0.042
    1UNL     H3   32  -0.588   0.135   0.059
    1UNL     H4   33  -0.626  -0.158   0.038
    1UNL     H5   34  -0.485  -0.148  -0.145
    1UNL     H6   35  -0.471   0.026  -0.150
    1UNL     H7   36  -0.628  -0.051  -0.190
    1UNL     H8   37  -0.464  -0.105   0.222
    1UNL     H9   38  -0.416  -0.311   0.092
    1UNL    H10   39  -0.228  -0.323  -0.054
    1UNL    H11   40  -0.270  -0.145  -0.261
    1UNL    H12   41  -0.146  -0.029  -0.283
    1UNL    H13   42  -0.089  -0.184  -0.237
    1UNL    H14   43   0.377   0.108   0.036
    1UNL    H15   44   0.424  -0.183   0.101
    1UNL    H16   45   0.662  -0.247   0.151
    1UNL    H17   46   0.901  -0.208   0.096
    1UNL    H18   47   0.985  -0.033  -0.029
    1UNL    H19   48   0.824   0.143  -0.110
    1UNL    H20   49   0.578   0.115  -0.050
    1UNL    H21   50   0.245   0.361   0.109
    1UNL    H22   51   0.039   0.398   0.076
    1UNL    H23   52  -0.270   0.286  -0.063
    1UNL    H24   53  -0.296   0.079  -0.117
    1UNL    H25   54  -0.377   0.121   0.121
    1UNL    H26   55  -0.255   0.027   0.183
   0.00000   0.00000   0.00000   0.00000   0.00000   0.00000   0.00000   0.00000   0.00000
Generated with MDTraj, t= 70.0
 55
    1UNL     C1    1  -0.667   0.022   0.094
    1UNL     C2    2  -0.568  -0.088   0.031
    1UNL     C3    3  -0.558  -0.059  -0.116
    1UNL     C4    4  -0.430  -0.087   0.101
    1UNL     C5    5  -0.365  -0.216   0.071
    1UNL     C6    6  -0.256  -0.220  -0.002
    1UNL     C7    7  -0.189  -0.107  -0.070
    1UNL     C8    8  -0.194  -0.129  -0.220
    1UNL     O1    9  -0.045  -0.108  -0.035
    1UNL     C9   10  -0.009   0.021  -0.000
    1UNL    C10   11   0.124   0.066   0.043
    1UNL    C11   12   0.230  -0.027   0.071
    1UNL     O2   13   0.211  -0.144   0.111
    1UNL    C12   14   0.367   0.010   0.033
    1UNL    C13   15   0.465  -0.080   0.042
    1UNL    C14   16   0.611  -0.058   0.028
    1UNL    C15   17   0.692  -0.168   0.067
    1UNL    C16   18   0.825  -0.159   0.066
    1UNL    C17   19   0.885  -0.047   0.012
    1UNL    C18   20   0.808   0.058  -0.035
    1UNL    C19   21   0.671   0.053  -0.031
    1UNL    C20   22   0.140   0.208   0.064
    1UNL     O3   23   0.260   0.269   0.107
    1UNL    C21   24   0.033   0.297   0.036
    1UNL    C22   25  -0.096   0.253   0.006
    1UNL     O4   26  -0.206   0.344   0.000
    1UNL    C23   27  -0.114   0.115  -0.009
    1UNL    C24   28  -0.241   0.038  -0.029
    1UNL    C25   29  -0.336   0.034   0.093
    1UNL     H1   30  -0.716   0.006   0.194
    1UNL     H2   31  -0.750   0.042   0.024
    1UNL     H3   32  -0.615   0.118   0.103
    1UNL     H4   33  -0.617  -0.190   0.030
    1UNL     H5   34  -0.512  -0.135  -0.180
    1UNL     H6   35  -0.504   0.040  -0.133
    1UNL     H7   36  -0.654  -0.042  -0.159
    1UNL     H8   37  -0.458  -0.083   0.221
    1UNL     H9   38  -0.417  -0.310   0.082
    1UNL    H10   39  -0.212  -0.320  -0.018
    1UNL    H11   40  -0.282  -0.089  -0.268
    1UNL    H12   41  -0.114  -0.070  -0.269
    1UNL    H13   42  -0.161  -0.230  -0.251
    1UNL    H14   43   0.381   0.114   0.013
    1UNL    H15   44   0.444  -0.179   0.077
    1UNL    H16   45   0.652  -0.250   0.119
    1UNL    H17   46   0.900  -0.230   0.105
    1UNL    H18   47   0.990  -0.050   0.004
    1UNL    H19   48   0.856   0.146  -0.079
    1UNL    H20   49   0.616   0.141  -0.055
    1UNL    H21   50   0.255   0.365   0.094
    1UNL    H22   51   0.042   0.399   0.073
    1UNL    H23   52  -0.291   0.296   0.006
    1UNL    H24   53  -0.288   0.083  -0.117
    1UNL    H25   54  -0.397   0.128   0.110
    1UNL    H26   55  -0.281   0.034   0.183
   0.00000   0.00000   0.00000   0.00000   0.00000   0.00000   0.00000   0.00000   0.00000
Generated with MDTraj, t= 71.0
 55
    1UNL     C1    1  -0.658   0.028   0.100
    1UNL     C2    2  -0.568  -0.064   0.030
    1UNL     C3    3  -0.558  -0.044  -0.115
    1UNL     C4    4  -0.431  -0.081   0.108
    1UNL     C5    5  -0.364  -0.206   0.079
    1UNL     C6    6  -0.255  -0.222  -0.001
    1UNL     C7    7  -0.173  -0.111  -0.068
    1UNL     C8    8  -0.178  -0.142  -0.216
    1UNL     O1    9  -0.039  -0.106  -0.020
    1UNL     C9   10  -0.004   0.026  -0.008
    1UNL    C10   11   0.124   0.067   0.027
    1UNL    C11   12   0.230  -0.031   0.042
    1UNL     O2   13   0.204  -0.138   0.098
    1UNL    C12   14   0.369  -0.008   0.012
    1UNL    C13   15   0.463  -0.099   0.039
    1UNL    C14   16   0.603  -0.065   0.036
    1UNL    C15   17   0.690  -0.170   0.059
    1UNL    C16   18   0.828  -0.154   0.056
    1UNL    C17   19   0.878  -0.034   0.022
    1UNL    C18   20   0.797   0.070  -0.005
    1UNL    C19   21   0.659   0.064   0.003
    1UNL    C20   22   0.140   0.209   0.054
    1UNL     O3   23   0.263   0.266   0.070
    1UNL    C21   24   0.030   0.292   0.054
    1UNL    C22   25  -0.102   0.245   0.019
    1UNL     O4   26  -0.208   0.327   0.024
    1UNL    C23   27  -0.115   0.109  -0.006
    1UNL    C24   28  -0.238   0.032  -0.037
    1UNL    C25   29  -0.341   0.039   0.077
    1UNL     H1   30  -0.645   0.019   0.209
    1UNL     H2   31  -0.767   0.023   0.081
    1UNL     H3   32  -0.633   0.135   0.085
    1UNL     H4   33  -0.612  -0.172   0.023
    1UNL     H5   34  -0.483  -0.121  -0.158
    1UNL     H6   35  -0.524   0.058  -0.146
    1UNL     H7   36  -0.645  -0.061  -0.170
    1UNL     H8   37  -0.454  -0.070   0.227
    1UNL     H9   38  -0.387  -0.300   0.125
    1UNL    H10   39  -0.215  -0.317  -0.029
    1UNL    H11   40  -0.274  -0.173  -0.249
    1UNL    H12   41  -0.152  -0.056  -0.277
    1UNL    H13   42  -0.098  -0.218  -0.236
    1UNL    H14   43   0.393   0.098  -0.003
    1UNL    H15   44   0.440  -0.198   0.080
    1UNL    H16   45   0.659  -0.273   0.081
    1UNL    H17   46   0.886  -0.235   0.082
    1UNL    H18   47   0.982  -0.012  -0.010
    1UNL    H19   48   0.842   0.160  -0.041
    1UNL    H20   49   0.593   0.146  -0.028
    1UNL    H21   50   0.256   0.367   0.066
    1UNL    H22   51   0.035   0.396   0.072
    1UNL    H23   52  -0.297   0.286   0.007
    1UNL    H24   53  -0.280   0.067  -0.131
    1UNL    H25   54  -0.403   0.133   0.066
    1UNL    H26   55  -0.288   0.062   0.166
   0.00000   0.00000   0.00000   0.00000   0.00000   0.00000   0.00000   0.00000   0.00000
Generated with MDTraj, t= 72.0
 55
    1UNL     C1    1  -0.643   0.054   0.099
    1UNL     C2    2  -0.560  -0.066   0.037
    1UNL     C3    3  -0.543  -0.046  -0.119
    1UNL     C4    4  -0.433  -0.093   0.110
    1UNL     C5    5  -0.378  -0.219   0.078
    1UNL     C6    6  -0.265  -0.234   0.004
    1UNL     C7    7  -0.196  -0.113  -0.065
    1UNL     C8    8  -0.202  -0.127  -0.221
    1UNL     O1    9  -0.058  -0.108  -0.025
    1UNL     C9   10  -0.012   0.018  -0.001
    1UNL    C10   11   0.122   0.060   0.025
    1UNL    C11   12   0.226  -0.039   0.051
    1UNL     O2   13   0.203  -0.161   0.041
    1UNL    C12   14   0.363  -0.000   0.073
    1UNL    C13   15   0.466  -0.087   0.059
    1UNL    C14   16   0.611  -0.058   0.039
    1UNL    C15   17   0.692  -0.170   0.044
    1UNL    C16   18   0.833  -0.145   0.032
    1UNL    C17   19   0.879  -0.020   0.024
    1UNL    C18   20   0.796   0.090   0.016
    1UNL    C19   21   0.662   0.069   0.034
    1UNL    C20   22   0.148   0.200   0.035
    1UNL     O3   23   0.275   0.250   0.051
    1UNL    C21   24   0.039   0.288   0.026
    1UNL    C22   25  -0.098   0.250   0.013
    1UNL     O4   26  -0.196   0.343   0.001
    1UNL    C23   27  -0.116   0.108   0.004
    1UNL    C24   28  -0.247   0.028  -0.017
    1UNL    C25   29  -0.335   0.025   0.104
    1UNL     H1   30  -0.649   0.053   0.208
    1UNL     H2   31  -0.740   0.059   0.047
    1UNL     H3   32  -0.584   0.145   0.069
    1UNL     H4   33  -0.618  -0.166   0.045
    1UNL     H5   34  -0.460  -0.118  -0.153
    1UNL     H6   35  -0.512   0.054  -0.142
    1UNL     H7   36  -0.630  -0.069  -0.177
    1UNL     H8   37  -0.463  -0.095   0.225
    1UNL     H9   38  -0.403  -0.301   0.144
    1UNL    H10   39  -0.205  -0.327  -0.002
    1UNL    H11   40  -0.297  -0.094  -0.251
    1UNL    H12   41  -0.123  -0.069  -0.267
    1UNL    H13   42  -0.181  -0.236  -0.250
    1UNL    H14   43   0.380   0.102   0.092
    1UNL    H15   44   0.429  -0.187   0.039
    1UNL    H16   45   0.662  -0.272   0.063
    1UNL    H17   46   0.913  -0.226   0.036
    1UNL    H18   47   0.981   0.002   0.041
    1UNL    H19   48   0.840   0.186  -0.013
    1UNL    H20   49   0.598   0.152   0.020
    1UNL    H21   50   0.275   0.352   0.059
    1UNL    H22   51   0.058   0.392   0.056
    1UNL    H23   52  -0.282   0.291  -0.005
    1UNL    H24   53  -0.292   0.083  -0.098
    1UNL    H25   54  -0.387   0.123   0.115
    1UNL    H26   55  -0.267   0.023   0.184
   0.00000   0.00000   0.00000   0.00000   0.00000   0.00000   0.00000   0.00000   0.00000
Generated with MDTraj, t= 73.0
 55
    1UNL     C1    1  -0.622   0.089   0.096
    1UNL     C2    2  -0.577  -0.053   0.047
    1UNL     C3    3  -0.567  -0.062  -0.097
    1UNL     C4    4  -0.442  -0.085   0.121
    1UNL     C5    5  -0.381  -0.218   0.076
    1UNL     C6    6  -0.278  -0.221  -0.009
    1UNL     C7    7  -0.200  -0.113  -0.059
    1UNL     C8    8  -0.184  -0.115  -0.210
    1UNL     O1    9  -0.062  -0.118  -0.005
    1UNL     C9   10  -0.012   0.010   0.011
    1UNL    C10   11   0.119   0.050   0.025
    1UNL    C11   12   0.228  -0.045   0.023
    1UNL     O2   13   0.210  -0.168   0.010
    1UNL    C12   14   0.368  -0.005   0.041
    1UNL    C13   15   0.465  -0.097   0.051
    1UNL    C14   16   0.609  -0.064   0.046
    1UNL    C15   17   0.711  -0.164   0.029
    1UNL    C16   18   0.844  -0.126   0.022
    1UNL    C17   19   0.879   0.005   0.031
    1UNL    C18   20   0.787   0.100   0.059
    1UNL    C19   21   0.656   0.064   0.066
    1UNL    C20   22   0.148   0.193   0.025
    1UNL     O3   23   0.273   0.241   0.055
    1UNL    C21   24   0.038   0.284   0.015
    1UNL    C22   25  -0.091   0.236  -0.002
    1UNL     O4   26  -0.194   0.323  -0.020
    1UNL    C23   27  -0.116   0.103   0.013
    1UNL    C24   28  -0.247   0.031  -0.017
    1UNL    C25   29  -0.327   0.025   0.112
    1UNL     H1   30  -0.648   0.085   0.201
    1UNL     H2   31  -0.703   0.124   0.027
    1UNL     H3   32  -0.535   0.157   0.085
    1UNL     H4   33  -0.658  -0.128   0.077
    1UNL     H5   34  -0.516  -0.158  -0.114
    1UNL     H6   35  -0.502   0.015  -0.132
    1UNL     H7   36  -0.666  -0.061  -0.154
    1UNL     H8   37  -0.465  -0.092   0.231
    1UNL     H9   38  -0.447  -0.306   0.078
    1UNL    H10   39  -0.258  -0.322  -0.037
    1UNL    H11   40  -0.287  -0.116  -0.248
    1UNL    H12   41  -0.129  -0.027  -0.238
    1UNL    H13   42  -0.123  -0.202  -0.242
    1UNL    H14   43   0.390   0.097   0.045
    1UNL    H15   44   0.425  -0.196   0.054
    1UNL    H16   45   0.688  -0.270   0.022
    1UNL    H17   46   0.920  -0.203   0.013
    1UNL    H18   47   0.985   0.037   0.041
    1UNL    H19   48   0.802   0.206   0.049
    1UNL    H20   49   0.587   0.148   0.071
    1UNL    H21   50   0.269   0.334   0.094
    1UNL    H22   51   0.051   0.387   0.032
    1UNL    H23   52  -0.278   0.275  -0.042
    1UNL    H24   53  -0.304   0.075  -0.097
    1UNL    H25   54  -0.362   0.127   0.130
    1UNL    H26   55  -0.255   0.004   0.187
   0.00000   0.00000   0.00000   0.00000   0.00000   0.00000   0.00000   0.00000   0.00000
Generated with MDTraj, t= 74.0
 55
    1UNL     C1    1  -0.608   0.115   0.110
    1UNL     C2    2  -0.574  -0.034   0.054
    1UNL     C3    3  -0.580  -0.048  -0.096
    1UNL     C4    4  -0.437  -0.075   0.122
    1UNL     C5    5  -0.386  -0.210   0.082
    1UNL     C6    6  -0.275  -0.231   0.008
    1UNL     C7    7  -0.197  -0.121  -0.060
    1UNL     C8    8  -0.181  -0.157  -0.213
    1UNL     O1    9  -0.066  -0.130  -0.004
    1UNL     C9   10  -0.009  -0.001   0.000
    1UNL    C10   11   0.121   0.043   0.019
    1UNL    C11   12   0.228  -0.050   0.014
    1UNL     O2   13   0.207  -0.171   0.004
    1UNL    C12   14   0.369  -0.008   0.019
    1UNL    C13   15   0.474  -0.088   0.006
    1UNL    C14   16   0.608  -0.054   0.035
    1UNL    C15   17   0.708  -0.143   0.006
    1UNL    C16   18   0.840  -0.114   0.022
    1UNL    C17   19   0.875   0.014   0.067
    1UNL    C18   20   0.778   0.099   0.105
    1UNL    C19   21   0.641   0.073   0.086
    1UNL    C20   22   0.147   0.182   0.032
    1UNL     O3   23   0.277   0.232   0.041
    1UNL    C21   24   0.038   0.272   0.023
    1UNL    C22   25  -0.092   0.228   0.007
    1UNL     O4   26  -0.193   0.324  -0.006
    1UNL    C23   27  -0.111   0.092  -0.008
    1UNL    C24   28  -0.242   0.023  -0.026
    1UNL    C25   29  -0.325   0.032   0.104
    1UNL     H1   30  -0.580   0.153   0.208
    1UNL     H2   31  -0.716   0.140   0.093
    1UNL     H3   32  -0.565   0.194   0.044
    1UNL     H4   33  -0.651  -0.101   0.097
    1UNL     H5   34  -0.568  -0.147  -0.132
    1UNL     H6   35  -0.494   0.005  -0.136
    1UNL     H7   36  -0.678  -0.003  -0.142
    1UNL     H8   37  -0.449  -0.075   0.230
    1UNL     H9   38  -0.456  -0.285   0.121
    1UNL    H10   39  -0.263  -0.337  -0.014
    1UNL    H11   40  -0.277  -0.183  -0.266
    1UNL    H12   41  -0.124  -0.078  -0.262
    1UNL    H13   42  -0.110  -0.236  -0.217
    1UNL    H14   43   0.380   0.091   0.061
    1UNL    H15   44   0.450  -0.191  -0.020
    1UNL    H16   45   0.686  -0.242  -0.027
    1UNL    H17   46   0.917  -0.182   0.022
    1UNL    H18   47   0.970   0.054   0.058
    1UNL    H19   48   0.815   0.196   0.141
    1UNL    H20   49   0.567   0.151   0.090
    1UNL    H21   50   0.294   0.320   0.077
    1UNL    H22   51   0.065   0.378   0.036
    1UNL    H23   52  -0.267   0.284  -0.058
    1UNL    H24   53  -0.298   0.066  -0.109
    1UNL    H25   54  -0.369   0.128   0.097
    1UNL    H26   55  -0.257   0.030   0.186
   0.00000   0.00000   0.00000   0.00000   0.00000   0.00000   0.00000   0.00000   0.00000
Generated with MDTraj, t= 75.0
 55
    1UNL     C1    1  -0.637   0.092   0.116
    1UNL     C2    2  -0.570  -0.028   0.054
    1UNL     C3    3  -0.562  -0.017  -0.096
    1UNL     C4    4  -0.435  -0.060   0.137
    1UNL     C5    5  -0.386  -0.199   0.110
    1UNL     C6    6  -0.284  -0.227   0.027
    1UNL     C7    7  -0.210  -0.128  -0.055
    1UNL     C8    8  -0.219  -0.167  -0.206
    1UNL     O1    9  -0.064  -0.131  -0.032
    1UNL     C9   10  -0.012   0.001  -0.020
    1UNL    C10   11   0.123   0.037   0.002
    1UNL    C11   12   0.233  -0.059   0.006
    1UNL     O2   13   0.210  -0.177  -0.017
    1UNL    C12   14   0.373  -0.017   0.032
    1UNL    C13   15   0.480  -0.088  -0.005
    1UNL    C14   16   0.619  -0.046   0.029
    1UNL    C15   17   0.725  -0.126  -0.018
    1UNL    C16   18   0.852  -0.098   0.020
    1UNL    C17   19   0.881   0.008   0.102
    1UNL    C18   20   0.781   0.099   0.137
    1UNL    C19   21   0.652   0.076   0.098
    1UNL    C20   22   0.150   0.177   0.017
    1UNL     O3   23   0.275   0.222   0.052
    1UNL    C21   24   0.038   0.266   0.012
    1UNL    C22   25  -0.095   0.226  -0.005
    1UNL     O4   26  -0.198   0.321  -0.012
    1UNL    C23   27  -0.116   0.088  -0.022
    1UNL    C24   28  -0.247   0.018  -0.027
    1UNL    C25   29  -0.315   0.042   0.112
    1UNL     H1   30  -0.639   0.111   0.226
    1UNL     H2   31  -0.737   0.108   0.071
    1UNL     H3   32  -0.592   0.187   0.082
    1UNL     H4   33  -0.628  -0.115   0.082
    1UNL     H5   34  -0.497  -0.093  -0.125
    1UNL     H6   35  -0.510   0.078  -0.130
    1UNL     H7   36  -0.662  -0.029  -0.149
    1UNL     H8   37  -0.452  -0.048   0.239
    1UNL     H9   38  -0.411  -0.278   0.181
    1UNL    H10   39  -0.237  -0.322   0.019
    1UNL    H11   40  -0.314  -0.121  -0.248
    1UNL    H12   41  -0.133  -0.151  -0.272
    1UNL    H13   42  -0.233  -0.270  -0.219
    1UNL    H14   43   0.380   0.072   0.091
    1UNL    H15   44   0.462  -0.180  -0.052
    1UNL    H16   45   0.704  -0.232  -0.038
    1UNL    H17   46   0.942  -0.170  -0.001
    1UNL    H18   47   0.988   0.021   0.133
    1UNL    H19   48   0.798   0.188   0.193
    1UNL    H20   49   0.569   0.135   0.131
    1UNL    H21   50   0.276   0.316   0.053
    1UNL    H22   51   0.048   0.373   0.020
    1UNL    H23   52  -0.278   0.269  -0.032
    1UNL    H24   53  -0.306   0.061  -0.109
    1UNL    H25   54  -0.349   0.140   0.107
    1UNL    H26   55  -0.239   0.040   0.186
   0.00000   0.00000   0.00000   0.00000   0.00000   0.00000   0.00000   0.00000   0.00000
Generated with MDTraj, t= 76.0
 55
    1UNL     C1    1  -0.670   0.066   0.137
    1UNL     C2    2  -0.577  -0.047   0.066
    1UNL     C3    3  -0.577  -0.016  -0.080
    1UNL     C4    4  -0.436  -0.058   0.136
    1UNL     C5    5  -0.374  -0.188   0.122
    1UNL     C6    6  -0.278  -0.224   0.035
    1UNL     C7    7  -0.197  -0.125  -0.054
    1UNL     C8    8  -0.222  -0.172  -0.199
    1UNL     O1    9  -0.051  -0.126  -0.039
    1UNL     C9   10  -0.009   0.006  -0.013
    1UNL    C10   11   0.125   0.045   0.000
    1UNL    C11   12   0.233  -0.054  -0.012
    1UNL     O2   13   0.224  -0.165  -0.063
    1UNL    C12   14   0.368  -0.021   0.028
    1UNL    C13   15   0.472  -0.106   0.019
    1UNL    C14   16   0.612  -0.060   0.040
    1UNL    C15   17   0.724  -0.132  -0.013
    1UNL    C16   18   0.850  -0.089   0.013
    1UNL    C17   19   0.873   0.013   0.105
    1UNL    C18   20   0.766   0.089   0.154
    1UNL    C19   21   0.639   0.050   0.118
    1UNL    C20   22   0.151   0.182   0.016
    1UNL     O3   23   0.276   0.228   0.048
    1UNL    C21   24   0.052   0.277   0.010
    1UNL    C22   25  -0.083   0.235  -0.019
    1UNL     O4   26  -0.181   0.323  -0.041
    1UNL    C23   27  -0.109   0.098  -0.020
    1UNL    C24   28  -0.240   0.027  -0.030
    1UNL    C25   29  -0.324   0.049   0.101
    1UNL     H1   30  -0.679   0.050   0.247
    1UNL     H2   31  -0.764   0.074   0.079
    1UNL     H3   32  -0.619   0.160   0.124
    1UNL     H4   33  -0.612  -0.144   0.095
    1UNL     H5   34  -0.499  -0.081  -0.128
    1UNL     H6   35  -0.550   0.093  -0.093
    1UNL     H7   36  -0.675  -0.030  -0.126
    1UNL     H8   37  -0.454  -0.049   0.237
    1UNL     H9   38  -0.410  -0.275   0.175
    1UNL    H10   39  -0.227  -0.320   0.049
    1UNL    H11   40  -0.314  -0.225  -0.216
    1UNL    H12   41  -0.222  -0.087  -0.269
    1UNL    H13   42  -0.138  -0.226  -0.242
    1UNL    H14   43   0.374   0.077   0.066
    1UNL    H15   44   0.456  -0.197  -0.040
    1UNL    H16   45   0.709  -0.220  -0.071
    1UNL    H17   46   0.928  -0.147  -0.021
    1UNL    H18   47   0.975   0.041   0.121
    1UNL    H19   48   0.784   0.179   0.216
    1UNL    H20   49   0.551   0.101   0.157
    1UNL    H21   50   0.291   0.320   0.020
    1UNL    H22   51   0.077   0.379   0.026
    1UNL    H23   52  -0.265   0.276  -0.036
    1UNL    H24   53  -0.306   0.055  -0.113
    1UNL    H25   54  -0.369   0.143   0.102
    1UNL    H26   55  -0.258   0.051   0.183
   0.00000   0.00000   0.00000   0.00000   0.00000   0.00000   0.00000   0.00000   0.00000
Generated with MDTraj, t= 77.0
 55
    1UNL     C1    1  -0.652   0.054   0.157
    1UNL     C2    2  -0.566  -0.053   0.080
    1UNL     C3    3  -0.580  -0.037  -0.069
    1UNL     C4    4  -0.419  -0.061   0.144
    1UNL     C5    5  -0.359  -0.199   0.118
    1UNL     C6    6  -0.262  -0.223   0.029
    1UNL     C7    7  -0.188  -0.123  -0.057
    1UNL     C8    8  -0.181  -0.172  -0.211
    1UNL     O1    9  -0.056  -0.122  -0.007
    1UNL     C9   10  -0.012   0.010  -0.021
    1UNL    C10   11   0.123   0.053  -0.014
    1UNL    C11   12   0.235  -0.041  -0.031
    1UNL     O2   13   0.210  -0.153  -0.076
    1UNL    C12   14   0.369  -0.013   0.019
    1UNL    C13   15   0.468  -0.107   0.022
    1UNL    C14   16   0.604  -0.074   0.058
    1UNL    C15   17   0.709  -0.142  -0.001
    1UNL    C16   18   0.841  -0.102   0.016
    1UNL    C17   19   0.865   0.011   0.096
    1UNL    C18   20   0.762   0.068   0.173
    1UNL    C19   21   0.630   0.028   0.149
    1UNL    C20   22   0.152   0.189   0.006
    1UNL     O3   23   0.278   0.244   0.027
    1UNL    C21   24   0.045   0.278  -0.010
    1UNL    C22   25  -0.093   0.246  -0.020
    1UNL     O4   26  -0.193   0.342  -0.033
    1UNL    C23   27  -0.115   0.109  -0.023
    1UNL    C24   28  -0.240   0.028  -0.040
    1UNL    C25   29  -0.334   0.056   0.082
    1UNL     H1   30  -0.654   0.028   0.266
    1UNL     H2   31  -0.748   0.061   0.107
    1UNL     H3   32  -0.605   0.151   0.148
    1UNL     H4   33  -0.610  -0.143   0.117
    1UNL     H5   34  -0.527  -0.134  -0.108
    1UNL     H6   35  -0.534   0.058  -0.102
    1UNL     H7   36  -0.683  -0.036  -0.096
    1UNL     H8   37  -0.426  -0.053   0.245
    1UNL     H9   38  -0.398  -0.278   0.182
    1UNL    H10   39  -0.230  -0.324   0.012
    1UNL    H11   40  -0.255  -0.140  -0.279
    1UNL    H12   41  -0.081  -0.158  -0.255
    1UNL    H13   42  -0.183  -0.283  -0.209
    1UNL    H14   43   0.386   0.089   0.056
    1UNL    H15   44   0.460  -0.194  -0.036
    1UNL    H16   45   0.690  -0.216  -0.077
    1UNL    H17   46   0.915  -0.136  -0.058
    1UNL    H18   47   0.964   0.059   0.098
    1UNL    H19   48   0.788   0.154   0.227
    1UNL    H20   49   0.546   0.080   0.184
    1UNL    H21   50   0.272   0.342   0.004
    1UNL    H22   51   0.064   0.387  -0.013
    1UNL    H23   52  -0.275   0.310   0.009
    1UNL    H24   53  -0.294   0.059  -0.130
    1UNL    H25   54  -0.398   0.138   0.065
    1UNL    H26   55  -0.277   0.089   0.163
   0.00000   0.00000   0.00000   0.00000   0.00000   0.00000   0.00000   0.00000   0.00000
Generated with MDTraj, t= 78.0
 55
    1UNL     C1    1  -0.615   0.075   0.144
    1UNL     C2    2  -0.559  -0.059   0.089
    1UNL     C3    3  -0.566  -0.060  -0.061
    1UNL     C4    4  -0.408  -0.081   0.144
    1UNL     C5    5  -0.351  -0.215   0.110
    1UNL     C6    6  -0.256  -0.227   0.018
    1UNL     C7    7  -0.192  -0.117  -0.057
    1UNL     C8    8  -0.213  -0.146  -0.212
    1UNL     O1    9  -0.047  -0.122  -0.034
    1UNL     C9   10  -0.014   0.013  -0.023
    1UNL    C10   11   0.119   0.066  -0.023
    1UNL    C11   12   0.229  -0.033  -0.026
    1UNL     O2   13   0.215  -0.152  -0.048
    1UNL    C12   14   0.360   0.000   0.022
    1UNL    C13   15   0.463  -0.086   0.009
    1UNL    C14   16   0.602  -0.055   0.051
    1UNL    C15   17   0.699  -0.137  -0.004
    1UNL    C16   18   0.835  -0.121   0.028
    1UNL    C17   19   0.876  -0.029   0.123
    1UNL    C18   20   0.776   0.046   0.187
    1UNL    C19   21   0.641   0.029   0.158
    1UNL    C20   22   0.142   0.209  -0.016
    1UNL     O3   23   0.269   0.263  -0.019
    1UNL    C21   24   0.031   0.291  -0.015
    1UNL    C22   25  -0.098   0.244  -0.017
    1UNL     O4   26  -0.203   0.331  -0.037
    1UNL    C23   27  -0.124   0.105  -0.019
    1UNL    C24   28  -0.250   0.025  -0.024
    1UNL    C25   29  -0.317   0.038   0.118
    1UNL     H1   30  -0.588   0.106   0.248
    1UNL     H2   31  -0.722   0.082   0.136
    1UNL     H3   32  -0.594   0.164   0.084
    1UNL     H4   33  -0.618  -0.135   0.138
    1UNL     H5   34  -0.531  -0.165  -0.099
    1UNL     H6   35  -0.508   0.022  -0.101
    1UNL     H7   36  -0.668  -0.041  -0.091
    1UNL     H8   37  -0.425  -0.087   0.245
    1UNL     H9   38  -0.396  -0.292   0.170
    1UNL    H10   39  -0.235  -0.325  -0.021
    1UNL    H11   40  -0.307  -0.196  -0.216
    1UNL    H12   41  -0.214  -0.055  -0.267
    1UNL    H13   42  -0.128  -0.208  -0.255
    1UNL    H14   43   0.374   0.098   0.067
    1UNL    H15   44   0.446  -0.182  -0.041
    1UNL    H16   45   0.667  -0.208  -0.078
    1UNL    H17   46   0.911  -0.178  -0.036
    1UNL    H18   47   0.978  -0.019   0.160
    1UNL    H19   48   0.784   0.119   0.270
    1UNL    H20   49   0.562   0.085   0.214
    1UNL    H21   50   0.257   0.365  -0.015
    1UNL    H22   51   0.048   0.393  -0.005
    1UNL    H23   52  -0.288   0.284  -0.022
    1UNL    H24   53  -0.317   0.069  -0.099
    1UNL    H25   54  -0.364   0.133   0.139
    1UNL    H26   55  -0.241   0.036   0.188
   0.00000   0.00000   0.00000   0.00000   0.00000   0.00000   0.00000   0.00000   0.00000
Generated with MDTraj, t= 79.0
 55
    1UNL     C1    1  -0.593   0.080   0.126
    1UNL     C2    2  -0.546  -0.058   0.100
    1UNL     C3    3  -0.561  -0.088  -0.046
    1UNL     C4    4  -0.406  -0.089   0.156
    1UNL     C5    5  -0.357  -0.226   0.108
    1UNL     C6    6  -0.274  -0.236   0.007
    1UNL     C7    7  -0.201  -0.114  -0.063
    1UNL     C8    8  -0.237  -0.122  -0.217
    1UNL     O1    9  -0.055  -0.116  -0.047
    1UNL     C9   10  -0.012   0.018  -0.030
    1UNL    C10   11   0.124   0.070  -0.033
    1UNL    C11   12   0.229  -0.030  -0.022
    1UNL     O2   13   0.209  -0.148  -0.043
    1UNL    C12   14   0.364   0.017   0.016
    1UNL    C13   15   0.474  -0.060   0.006
    1UNL    C14   16   0.614  -0.050   0.046
    1UNL    C15   17   0.706  -0.143  -0.007
    1UNL    C16   18   0.839  -0.143   0.045
    1UNL    C17   19   0.866  -0.058   0.157
    1UNL    C18   20   0.777   0.043   0.199
    1UNL    C19   21   0.646   0.037   0.147
    1UNL    C20   22   0.137   0.213  -0.041
    1UNL     O3   23   0.260   0.273  -0.037
    1UNL    C21   24   0.022   0.296  -0.035
    1UNL    C22   25  -0.104   0.246  -0.026
    1UNL     O4   26  -0.216   0.328  -0.015
    1UNL    C23   27  -0.119   0.108  -0.025
    1UNL    C24   28  -0.243   0.031  -0.011
    1UNL    C25   29  -0.294   0.021   0.140
    1UNL     H1   30  -0.604   0.107   0.231
    1UNL     H2   31  -0.689   0.102   0.083
    1UNL     H3   32  -0.535   0.165   0.086
    1UNL     H4   33  -0.602  -0.131   0.164
    1UNL     H5   34  -0.514  -0.181  -0.071
    1UNL     H6   35  -0.522  -0.008  -0.109
    1UNL     H7   36  -0.669  -0.093  -0.080
    1UNL     H8   37  -0.429  -0.101   0.258
    1UNL     H9   38  -0.387  -0.319   0.158
    1UNL    H10   39  -0.230  -0.334  -0.001
    1UNL    H11   40  -0.341  -0.088  -0.230
    1UNL    H12   41  -0.161  -0.069  -0.269
    1UNL    H13   42  -0.231  -0.227  -0.249
    1UNL    H14   43   0.376   0.116   0.049
    1UNL    H15   44   0.447  -0.160  -0.015
    1UNL    H16   45   0.677  -0.205  -0.092
    1UNL    H17   46   0.912  -0.203   0.011
    1UNL    H18   47   0.959  -0.064   0.208
    1UNL    H19   48   0.805   0.112   0.276
    1UNL    H20   49   0.571   0.085   0.203
    1UNL    H21   50   0.250   0.367  -0.006
    1UNL    H22   51   0.040   0.406  -0.029
    1UNL    H23   52  -0.304   0.281  -0.010
    1UNL    H24   53  -0.328   0.072  -0.068
    1UNL    H25   54  -0.327   0.117   0.179
    1UNL    H26   55  -0.210  -0.007   0.194
   0.00000   0.00000   0.00000   0.00000   0.00000   0.00000   0.00000   0.00000   0.00000
Generated with MDTraj, t= 80.0
 55
    1UNL     C1    1  -0.589   0.081   0.140
    1UNL     C2    2  -0.542  -0.061   0.110
    1UNL     C3    3  -0.571  -0.102  -0.036
    1UNL     C4    4  -0.394  -0.086   0.158
    1UNL     C5    5  -0.348  -0.221   0.105
    1UNL     C6    6  -0.257  -0.233   0.012
    1UNL     C7    7  -0.192  -0.113  -0.069
    1UNL     C8    8  -0.218  -0.145  -0.224
    1UNL     O1    9  -0.048  -0.104  -0.035
    1UNL     C9   10  -0.006   0.026  -0.032
    1UNL    C10   11   0.125   0.076  -0.028
    1UNL    C11   12   0.233  -0.024  -0.036
    1UNL     O2   13   0.210  -0.135  -0.078
    1UNL    C12   14   0.369   0.011  -0.013
    1UNL    C13   15   0.454  -0.089  -0.002
    1UNL    C14   16   0.589  -0.069   0.050
    1UNL    C15   17   0.695  -0.151   0.013
    1UNL    C16   18   0.819  -0.148   0.078
    1UNL    C17   19   0.853  -0.034   0.157
    1UNL    C18   20   0.751   0.052   0.193
    1UNL    C19   21   0.627   0.039   0.133
    1UNL    C20   22   0.141   0.216  -0.027
    1UNL     O3   23   0.266   0.270  -0.045
    1UNL    C21   24   0.029   0.295  -0.010
    1UNL    C22   25  -0.099   0.246  -0.011
    1UNL     O4   26  -0.200   0.336   0.003
    1UNL    C23   27  -0.121   0.111  -0.032
    1UNL    C24   28  -0.244   0.026  -0.026
    1UNL    C25   29  -0.293   0.028   0.122
    1UNL     H1   30  -0.579   0.102   0.245
    1UNL     H2   31  -0.691   0.080   0.105
    1UNL     H3   32  -0.532   0.153   0.080
    1UNL     H4   33  -0.596  -0.132   0.182
    1UNL     H5   34  -0.560  -0.203  -0.054
    1UNL     H6   35  -0.519  -0.039  -0.111
    1UNL     H7   36  -0.683  -0.076  -0.056
    1UNL     H8   37  -0.404  -0.098   0.266
    1UNL     H9   38  -0.386  -0.312   0.149
    1UNL    H10   39  -0.225  -0.328  -0.022
    1UNL    H11   40  -0.326  -0.130  -0.253
    1UNL    H12   41  -0.138  -0.092  -0.274
    1UNL    H13   42  -0.198  -0.245  -0.249
    1UNL    H14   43   0.397   0.113   0.013
    1UNL    H15   44   0.416  -0.190  -0.014
    1UNL    H16   45   0.671  -0.214  -0.070
    1UNL    H17   46   0.890  -0.230   0.037
    1UNL    H18   47   0.960  -0.012   0.181
    1UNL    H19   48   0.765   0.129   0.269
    1UNL    H20   49   0.547   0.104   0.174
    1UNL    H21   50   0.272   0.359  -0.011
    1UNL    H22   51   0.036   0.397  -0.040
    1UNL    H23   52  -0.287   0.301  -0.034
    1UNL    H24   53  -0.322   0.066  -0.094
    1UNL    H25   54  -0.325   0.129   0.148
    1UNL    H26   55  -0.207   0.004   0.177
   0.00000   0.00000   0.00000   0.00000   0.00000   0.00000   0.00000   0.00000   0.00000
Generated with MDTraj, t= 81.0
 55
    1UNL     C1    1  -0.615   0.062   0.165
    1UNL     C2    2  -0.551  -0.070   0.107
    1UNL     C3    3  -0.551  -0.080  -0.046
    1UNL     C4    4  -0.394  -0.078   0.156
    1UNL     C5    5  -0.333  -0.211   0.122
    1UNL     C6    6  -0.247  -0.230   0.025
    1UNL     C7    7  -0.199  -0.113  -0.059
    1UNL     C8    8  -0.223  -0.135  -0.212
    1UNL     O1    9  -0.055  -0.112  -0.043
    1UNL     C9   10  -0.008   0.018  -0.038
    1UNL    C10   11   0.126   0.062  -0.050
    1UNL    C11   12   0.236  -0.034  -0.068
    1UNL     O2   13   0.221  -0.123  -0.148
    1UNL    C12   14   0.363  -0.005  -0.004
    1UNL    C13   15   0.462  -0.092  -0.003
    1UNL    C14   16   0.587  -0.076   0.066
    1UNL    C15   17   0.691  -0.164   0.047
    1UNL    C16   18   0.817  -0.145   0.096
    1UNL    C17   19   0.844  -0.021   0.157
    1UNL    C18   20   0.739   0.079   0.165
    1UNL    C19   21   0.612   0.051   0.124
    1UNL    C20   22   0.146   0.199  -0.027
    1UNL     O3   23   0.275   0.246  -0.010
    1UNL    C21   24   0.040   0.292  -0.018
    1UNL    C22   25  -0.094   0.250  -0.021
    1UNL     O4   26  -0.201   0.338   0.002
    1UNL    C23   27  -0.112   0.113  -0.029
    1UNL    C24   28  -0.243   0.036  -0.018
    1UNL    C25   29  -0.298   0.042   0.126
    1UNL     H1   30  -0.586   0.066   0.266
    1UNL     H2   31  -0.721   0.044   0.151
    1UNL     H3   32  -0.576   0.144   0.104
    1UNL     H4   33  -0.606  -0.158   0.156
    1UNL     H5   34  -0.519  -0.175  -0.080
    1UNL     H6   35  -0.495   0.006  -0.087
    1UNL     H7   36  -0.658  -0.057  -0.080
    1UNL     H8   37  -0.414  -0.080   0.268
    1UNL     H9   38  -0.373  -0.294   0.182
    1UNL    H10   39  -0.209  -0.321  -0.021
    1UNL    H11   40  -0.316  -0.198  -0.217
    1UNL    H12   41  -0.222  -0.041  -0.269
    1UNL    H13   42  -0.151  -0.190  -0.262
    1UNL    H14   43   0.379   0.092   0.039
    1UNL    H15   44   0.454  -0.185  -0.055
    1UNL    H16   45   0.661  -0.247  -0.018
    1UNL    H17   46   0.897  -0.215   0.085
    1UNL    H18   47   0.942  -0.009   0.193
    1UNL    H19   48   0.755   0.152   0.242
    1UNL    H20   49   0.535   0.121   0.141
    1UNL    H21   50   0.276   0.323   0.045
    1UNL    H22   51   0.053   0.395  -0.007
    1UNL    H23   52  -0.285   0.302  -0.035
    1UNL    H24   53  -0.310   0.086  -0.090
    1UNL    H25   54  -0.358   0.129   0.152
    1UNL    H26   55  -0.214   0.041   0.193
   0.00000   0.00000   0.00000   0.00000   0.00000   0.00000   0.00000   0.00000   0.00000
Generated with MDTraj, t= 82.0
 55
    1UNL     C1    1  -0.630   0.039   0.187
    1UNL     C2    2  -0.553  -0.065   0.110
    1UNL     C3    3  -0.560  -0.039  -0.048
    1UNL     C4    4  -0.400  -0.076   0.159
    1UNL     C5    5  -0.331  -0.207   0.125
    1UNL     C6    6  -0.237  -0.216   0.035
    1UNL     C7    7  -0.193  -0.114  -0.067
    1UNL     C8    8  -0.251  -0.152  -0.202
    1UNL     O1    9  -0.052  -0.113  -0.074
    1UNL     C9   10  -0.012   0.018  -0.048
    1UNL    C10   11   0.121   0.064  -0.053
    1UNL    C11   12   0.236  -0.028  -0.084
    1UNL     O2   13   0.234  -0.120  -0.161
    1UNL    C12   14   0.364  -0.010  -0.007
    1UNL    C13   15   0.473  -0.088  -0.015
    1UNL    C14   16   0.598  -0.072   0.054
    1UNL    C15   17   0.692  -0.174   0.070
    1UNL    C16   18   0.811  -0.143   0.125
    1UNL    C17   19   0.850  -0.018   0.177
    1UNL    C18   20   0.755   0.084   0.157
    1UNL    C19   21   0.632   0.056   0.100
    1UNL    C20   22   0.145   0.203  -0.015
    1UNL     O3   23   0.280   0.243  -0.012
    1UNL    C21   24   0.037   0.286   0.008
    1UNL    C22   25  -0.096   0.240  -0.006
    1UNL     O4   26  -0.200   0.329  -0.005
    1UNL    C23   27  -0.118   0.103  -0.023
    1UNL    C24   28  -0.247   0.028  -0.026
    1UNL    C25   29  -0.308   0.043   0.112
    1UNL     H1   30  -0.622   0.016   0.290
    1UNL     H2   31  -0.735   0.038   0.157
    1UNL     H3   32  -0.581   0.133   0.171
    1UNL     H4   33  -0.594  -0.169   0.138
    1UNL     H5   34  -0.493  -0.110  -0.104
    1UNL     H6   35  -0.532   0.063  -0.071
    1UNL     H7   36  -0.661  -0.048  -0.082
    1UNL     H8   37  -0.409  -0.078   0.277
    1UNL     H9   38  -0.374  -0.295   0.166
    1UNL    H10   39  -0.176  -0.304   0.035
    1UNL    H11   40  -0.299  -0.067  -0.251
    1UNL    H12   41  -0.170  -0.191  -0.265
    1UNL    H13   42  -0.328  -0.226  -0.208
    1UNL    H14   43   0.393   0.090   0.009
    1UNL    H15   44   0.465  -0.183  -0.065
    1UNL    H16   45   0.665  -0.266   0.025
    1UNL    H17   46   0.877  -0.224   0.129
    1UNL    H18   47   0.932  -0.015   0.253
    1UNL    H19   48   0.770   0.179   0.206
    1UNL    H20   49   0.553   0.130   0.115
    1UNL    H21   50   0.286   0.337   0.015
    1UNL    H22   51   0.057   0.393   0.036
    1UNL    H23   52  -0.280   0.294  -0.048
    1UNL    H24   53  -0.321   0.057  -0.103
    1UNL    H25   54  -0.360   0.138   0.115
    1UNL    H26   55  -0.232   0.042   0.189
   0.00000   0.00000   0.00000   0.00000   0.00000   0.00000   0.00000   0.00000   0.00000
Generated with MDTraj, t= 83.0
 55
    1UNL     C1    1  -0.630   0.025   0.207
    1UNL     C2    2  -0.549  -0.066   0.118
    1UNL     C3    3  -0.567  -0.030  -0.037
    1UNL     C4    4  -0.394  -0.074   0.156
    1UNL     C5    5  -0.338  -0.207   0.108
    1UNL     C6    6  -0.246  -0.222   0.018
    1UNL     C7    7  -0.193  -0.119  -0.074
    1UNL     C8    8  -0.226  -0.160  -0.217
    1UNL     O1    9  -0.046  -0.113  -0.067
    1UNL     C9   10  -0.008   0.017  -0.061
    1UNL    C10   11   0.127   0.068  -0.060
    1UNL    C11   12   0.237  -0.029  -0.066
    1UNL     O2   13   0.219  -0.140  -0.110
    1UNL    C12   14   0.367   0.014  -0.017
    1UNL    C13   15   0.467  -0.075  -0.022
    1UNL    C14   16   0.602  -0.057   0.034
    1UNL    C15   17   0.671  -0.173   0.074
    1UNL    C16   18   0.789  -0.160   0.147
    1UNL    C17   19   0.835  -0.034   0.184
    1UNL    C18   20   0.763   0.083   0.155
    1UNL    C19   21   0.649   0.068   0.074
    1UNL    C20   22   0.147   0.202  -0.017
    1UNL     O3   23   0.275   0.255  -0.010
    1UNL    C21   24   0.037   0.292  -0.007
    1UNL    C22   25  -0.095   0.243  -0.008
    1UNL     O4   26  -0.200   0.328   0.026
    1UNL    C23   27  -0.111   0.105  -0.041
    1UNL    C24   28  -0.239   0.026  -0.041
    1UNL    C25   29  -0.307   0.039   0.099
    1UNL     H1   30  -0.636  -0.012   0.307
    1UNL     H2   31  -0.735   0.043   0.185
    1UNL     H3   32  -0.588   0.121   0.226
    1UNL     H4   33  -0.576  -0.176   0.133
    1UNL     H5   34  -0.497  -0.079  -0.116
    1UNL     H6   35  -0.556   0.076  -0.054
    1UNL     H7   36  -0.665  -0.051  -0.064
    1UNL     H8   37  -0.392  -0.074   0.277
    1UNL     H9   38  -0.347  -0.282   0.188
    1UNL    H10   39  -0.194  -0.319   0.029
    1UNL    H11   40  -0.143  -0.161  -0.280
    1UNL    H12   41  -0.266  -0.263  -0.213
    1UNL    H13   42  -0.298  -0.100  -0.274
    1UNL    H14   43   0.398   0.118   0.004
    1UNL    H15   44   0.440  -0.170  -0.067
    1UNL    H16   45   0.654  -0.263   0.013
    1UNL    H17   46   0.854  -0.255   0.152
    1UNL    H18   47   0.931  -0.029   0.227
    1UNL    H19   48   0.802   0.178   0.195
    1UNL    H20   49   0.600   0.158   0.045
    1UNL    H21   50   0.259   0.355  -0.014
    1UNL    H22   51   0.049   0.393   0.005
    1UNL    H23   52  -0.277   0.272   0.019
    1UNL    H24   53  -0.302   0.062  -0.123
    1UNL    H25   54  -0.378   0.119   0.090
    1UNL    H26   55  -0.226   0.073   0.165
   0.00000   0.00000   0.00000   0.00000   0.00000   0.00000   0.00000   0.00000   0.00000
Generated with MDTraj, t= 84.0
 55
    1UNL     C1    1  -0.608   0.026   0.200
    1UNL     C2    2  -0.545  -0.076   0.117
    1UNL     C3    3  -0.566  -0.048  -0.032
    1UNL     C4    4  -0.391  -0.094   0.152
    1UNL     C5    5  -0.340  -0.222   0.088
    1UNL     C6    6  -0.254  -0.235  -0.010
    1UNL     C7    7  -0.195  -0.113  -0.076
    1UNL     C8    8  -0.225  -0.119  -0.222
    1UNL     O1    9  -0.050  -0.102  -0.061
    1UNL     C9   10  -0.007   0.026  -0.032
    1UNL    C10   11   0.122   0.072  -0.034
    1UNL    C11   12   0.234  -0.023  -0.053
    1UNL     O2   13   0.209  -0.136  -0.085
    1UNL    C12   14   0.371   0.005  -0.020
    1UNL    C13   15   0.465  -0.091  -0.008
    1UNL    C14   16   0.601  -0.066   0.046
    1UNL    C15   17   0.672  -0.174   0.091
    1UNL    C16   18   0.798  -0.165   0.156
    1UNL    C17   19   0.844  -0.037   0.173
    1UNL    C18   20   0.773   0.072   0.129
    1UNL    C19   21   0.653   0.060   0.063
    1UNL    C20   22   0.143   0.209  -0.022
    1UNL     O3   23   0.268   0.271  -0.026
    1UNL    C21   24   0.035   0.296  -0.012
    1UNL    C22   25  -0.099   0.253  -0.027
    1UNL     O4   26  -0.208   0.338  -0.014
    1UNL    C23   27  -0.118   0.114  -0.024
    1UNL    C24   28  -0.238   0.026  -0.019
    1UNL    C25   29  -0.302   0.024   0.126
    1UNL     H1   30  -0.575   0.008   0.301
    1UNL     H2   31  -0.717   0.019   0.206
    1UNL     H3   32  -0.579   0.126   0.178
    1UNL     H4   33  -0.592  -0.175   0.143
    1UNL     H5   34  -0.540  -0.131  -0.102
    1UNL     H6   35  -0.513   0.038  -0.073
    1UNL     H7   36  -0.669  -0.028  -0.045
    1UNL     H8   37  -0.396  -0.108   0.275
    1UNL     H9   38  -0.387  -0.305   0.133
    1UNL    H10   39  -0.222  -0.329  -0.050
    1UNL    H11   40  -0.233  -0.022  -0.260
    1UNL    H12   41  -0.149  -0.177  -0.274
    1UNL    H13   42  -0.323  -0.167  -0.245
    1UNL    H14   43   0.405   0.103  -0.001
    1UNL    H15   44   0.430  -0.191  -0.017
    1UNL    H16   45   0.634  -0.272   0.070
    1UNL    H17   46   0.856  -0.248   0.156
    1UNL    H18   47   0.941  -0.024   0.223
    1UNL    H19   48   0.808   0.171   0.149
    1UNL    H20   49   0.609   0.151   0.024
    1UNL    H21   50   0.259   0.369  -0.054
    1UNL    H22   51   0.061   0.403  -0.019
    1UNL    H23   52  -0.288   0.286   0.005
    1UNL    H24   53  -0.305   0.067  -0.096
    1UNL    H25   54  -0.350   0.118   0.143
    1UNL    H26   55  -0.213   0.022   0.190
   0.00000   0.00000   0.00000   0.00000   0.00000   0.00000   0.00000   0.00000   0.00000
Generated with MDTraj, t= 85.0
 55
    1UNL     C1    1  -0.585   0.044   0.193
    1UNL     C2    2  -0.533  -0.080   0.119
    1UNL     C3    3  -0.564  -0.063  -0.036
    1UNL     C4    4  -0.382  -0.110   0.148
    1UNL     C5    5  -0.345  -0.231   0.080
    1UNL     C6    6  -0.268  -0.229  -0.027
    1UNL     C7    7  -0.196  -0.107  -0.082
    1UNL     C8    8  -0.215  -0.089  -0.228
    1UNL     O1    9  -0.056  -0.107  -0.050
    1UNL     C9   10  -0.014   0.024  -0.034
    1UNL    C10   11   0.119   0.067  -0.032
    1UNL    C11   12   0.228  -0.029  -0.043
    1UNL     O2   13   0.212  -0.137  -0.093
    1UNL    C12   14   0.359   0.008   0.015
    1UNL    C13   15   0.454  -0.084   0.026
    1UNL    C14   16   0.586  -0.061   0.081
    1UNL    C15   17   0.663  -0.172   0.122
    1UNL    C16   18   0.800  -0.161   0.136
    1UNL    C17   19   0.861  -0.038   0.135
    1UNL    C18   20   0.790   0.070   0.093
    1UNL    C19   21   0.654   0.060   0.071
    1UNL    C20   22   0.141   0.205  -0.023
    1UNL     O3   23   0.265   0.266  -0.033
    1UNL    C21   24   0.028   0.297  -0.028
    1UNL    C22   25  -0.101   0.250  -0.026
    1UNL     O4   26  -0.207   0.348  -0.019
    1UNL    C23   27  -0.120   0.113  -0.031
    1UNL    C24   28  -0.247   0.029  -0.008
    1UNL    C25   29  -0.285   0.003   0.139
    1UNL     H1   30  -0.566   0.023   0.298
    1UNL     H2   31  -0.691   0.043   0.171
    1UNL     H3   32  -0.528   0.126   0.154
    1UNL     H4   33  -0.594  -0.163   0.157
    1UNL     H5   34  -0.535  -0.143  -0.094
    1UNL     H6   35  -0.518   0.025  -0.082
    1UNL     H7   36  -0.673  -0.049  -0.046
    1UNL     H8   37  -0.386  -0.130   0.269
    1UNL     H9   38  -0.414  -0.316   0.093
    1UNL    H10   39  -0.260  -0.313  -0.096
    1UNL    H11   40  -0.133  -0.025  -0.256
    1UNL    H12   41  -0.213  -0.185  -0.275
    1UNL    H13   42  -0.312  -0.042  -0.254
    1UNL    H14   43   0.378   0.102   0.057
    1UNL    H15   44   0.423  -0.188   0.005
    1UNL    H16   45   0.612  -0.267   0.142
    1UNL    H17   46   0.864  -0.248   0.173
    1UNL    H18   47   0.960  -0.025   0.170
    1UNL    H19   48   0.833   0.173   0.096
    1UNL    H20   49   0.600   0.153   0.057
    1UNL    H21   50   0.247   0.364  -0.041
    1UNL    H22   51   0.047   0.403  -0.037
    1UNL    H23   52  -0.297   0.314   0.004
    1UNL    H24   53  -0.330   0.067  -0.070
    1UNL    H25   54  -0.325   0.096   0.171
    1UNL    H26   55  -0.197  -0.021   0.200
   0.00000   0.00000   0.00000   0.00000   0.00000   0.00000   0.00000   0.00000   0.00000
Generated with MDTraj, t= 86.0
 55
    1UNL     C1    1  -0.583   0.064   0.192
    1UNL     C2    2  -0.545  -0.066   0.121
    1UNL     C3    3  -0.590  -0.061  -0.027
    1UNL     C4    4  -0.394  -0.101   0.140
    1UNL     C5    5  -0.357  -0.227   0.066
    1UNL     C6    6  -0.258  -0.229  -0.022
    1UNL     C7    7  -0.193  -0.108  -0.088
    1UNL     C8    8  -0.216  -0.107  -0.239
    1UNL     O1    9  -0.045  -0.116  -0.060
    1UNL     C9   10  -0.008   0.017  -0.057
    1UNL    C10   11   0.122   0.067  -0.038
    1UNL    C11   12   0.233  -0.034  -0.036
    1UNL     O2   13   0.216  -0.148  -0.073
    1UNL    C12   14   0.366   0.012   0.014
    1UNL    C13   15   0.448  -0.084   0.062
    1UNL    C14   16   0.591  -0.066   0.084
    1UNL    C15   17   0.671  -0.175   0.124
    1UNL    C16   18   0.802  -0.154   0.141
    1UNL    C17   19   0.864  -0.029   0.115
    1UNL    C18   20   0.785   0.075   0.081
    1UNL    C19   21   0.652   0.057   0.055
    1UNL    C20   22   0.136   0.217  -0.022
    1UNL     O3   23   0.262   0.273  -0.025
    1UNL    C21   24   0.024   0.298  -0.005
    1UNL    C22   25  -0.103   0.243  -0.008
    1UNL     O4   26  -0.206   0.335   0.014
    1UNL    C23   27  -0.116   0.105  -0.043
    1UNL    C24   28  -0.239   0.024  -0.030
    1UNL    C25   29  -0.285   0.014   0.116
    1UNL     H1   30  -0.545   0.041   0.292
    1UNL     H2   31  -0.691   0.066   0.193
    1UNL     H3   32  -0.527   0.144   0.144
    1UNL     H4   33  -0.600  -0.147   0.165
    1UNL     H5   34  -0.546  -0.134  -0.085
    1UNL     H6   35  -0.561   0.033  -0.069
    1UNL     H7   36  -0.701  -0.073  -0.030
    1UNL     H8   37  -0.386  -0.120   0.251
    1UNL     H9   38  -0.392  -0.322   0.100
    1UNL    H10   39  -0.229  -0.318  -0.072
    1UNL    H11   40  -0.205  -0.003  -0.280
    1UNL    H12   41  -0.143  -0.177  -0.275
    1UNL    H13   42  -0.311  -0.148  -0.260
    1UNL    H14   43   0.386   0.119   0.011
    1UNL    H15   44   0.409  -0.182   0.077
    1UNL    H16   45   0.626  -0.273   0.132
    1UNL    H17   46   0.864  -0.222   0.188
    1UNL    H18   47   0.974  -0.016   0.113
    1UNL    H19   48   0.836   0.162   0.055
    1UNL    H20   49   0.593   0.136   0.011
    1UNL    H21   50   0.258   0.367  -0.001
    1UNL    H22   51   0.039   0.401   0.004
    1UNL    H23   52  -0.292   0.287  -0.005
    1UNL    H24   53  -0.307   0.071  -0.104
    1UNL    H25   54  -0.325   0.104   0.156
    1UNL    H26   55  -0.196  -0.001   0.176
   0.00000   0.00000   0.00000   0.00000   0.00000   0.00000   0.00000   0.00000   0.00000
Generated with MDTraj, t= 87.0
 55
    1UNL     C1    1  -0.605   0.053   0.201
    1UNL     C2    2  -0.545  -0.061   0.113
    1UNL     C3    3  -0.572  -0.048  -0.045
    1UNL     C4    4  -0.396  -0.086   0.136
    1UNL     C5    5  -0.348  -0.220   0.082
    1UNL     C6    6  -0.261  -0.229  -0.014
    1UNL     C7    7  -0.204  -0.115  -0.092
    1UNL     C8    8  -0.237  -0.122  -0.243
    1UNL     O1    9  -0.054  -0.114  -0.073
    1UNL     C9   10  -0.015   0.015  -0.043
    1UNL    C10   11   0.119   0.060  -0.024
    1UNL    C11   12   0.227  -0.040  -0.022
    1UNL     O2   13   0.215  -0.159  -0.046
    1UNL    C12   14   0.369   0.002   0.004
    1UNL    C13   15   0.466  -0.087   0.025
    1UNL    C14   16   0.604  -0.058   0.049
    1UNL    C15   17   0.678  -0.159   0.112
    1UNL    C16   18   0.806  -0.140   0.157
    1UNL    C17   19   0.873  -0.024   0.127
    1UNL    C18   20   0.798   0.081   0.080
    1UNL    C19   21   0.670   0.070   0.038
    1UNL    C20   22   0.140   0.199  -0.018
    1UNL     O3   23   0.265   0.255   0.009
    1UNL    C21   24   0.032   0.283   0.008
    1UNL    C22   25  -0.103   0.237  -0.001
    1UNL     O4   26  -0.198   0.334   0.013
    1UNL    C23   27  -0.124   0.104  -0.039
    1UNL    C24   28  -0.251   0.030  -0.046
    1UNL    C25   29  -0.309   0.033   0.097
    1UNL     H1   30  -0.580   0.035   0.306
    1UNL     H2   31  -0.713   0.047   0.203
    1UNL     H3   32  -0.570   0.154   0.171
    1UNL     H4   33  -0.582  -0.156   0.136
    1UNL     H5   34  -0.545  -0.131  -0.109
    1UNL     H6   35  -0.521   0.033  -0.088
    1UNL     H7   36  -0.678  -0.029  -0.062
    1UNL     H8   37  -0.380  -0.099   0.241
    1UNL     H9   38  -0.389  -0.312   0.127
    1UNL    H10   39  -0.223  -0.329  -0.030
    1UNL    H11   40  -0.155  -0.064  -0.294
    1UNL    H12   41  -0.253  -0.220  -0.282
    1UNL    H13   42  -0.327  -0.071  -0.257
    1UNL    H14   43   0.384   0.108   0.015
    1UNL    H15   44   0.447  -0.192  -0.000
    1UNL    H16   45   0.626  -0.247   0.150
    1UNL    H17   46   0.863  -0.223   0.206
    1UNL    H18   47   0.976  -0.016   0.147
    1UNL    H19   48   0.851   0.178   0.055
    1UNL    H20   49   0.617   0.140  -0.025
    1UNL    H21   50   0.259   0.348   0.026
    1UNL    H22   51   0.033   0.379   0.064
    1UNL    H23   52  -0.286   0.307  -0.025
    1UNL    H24   53  -0.319   0.085  -0.115
    1UNL    H25   54  -0.355   0.124   0.131
    1UNL    H26   55  -0.228   0.031   0.167
   0.00000   0.00000   0.00000   0.00000   0.00000   0.00000   0.00000   0.00000   0.00000
Generated with MDTraj, t= 88.0
 55
    1UNL     C1    1  -0.640   0.027   0.181
    1UNL     C2    2  -0.565  -0.063   0.096
    1UNL     C3    3  -0.559  -0.024  -0.052
    1UNL     C4    4  -0.414  -0.084   0.141
    1UNL     C5    5  -0.352  -0.220   0.088
    1UNL     C6    6  -0.254  -0.230  -0.003
    1UNL     C7    7  -0.196  -0.108  -0.083
    1UNL     C8    8  -0.237  -0.123  -0.234
    1UNL     O1    9  -0.053  -0.111  -0.057
    1UNL     C9   10  -0.004   0.015  -0.040
    1UNL    C10   11   0.128   0.052  -0.015
    1UNL    C11   12   0.233  -0.048  -0.027
    1UNL     O2   13   0.201  -0.164  -0.041
    1UNL    C12   14   0.373  -0.010  -0.008
    1UNL    C13   15   0.468  -0.105  -0.006
    1UNL    C14   16   0.610  -0.070   0.031
    1UNL    C15   17   0.690  -0.162   0.099
    1UNL    C16   18   0.816  -0.126   0.149
    1UNL    C17   19   0.854   0.002   0.139
    1UNL    C18   20   0.781   0.096   0.064
    1UNL    C19   21   0.657   0.062   0.023
    1UNL    C20   22   0.148   0.190   0.009
    1UNL     O3   23   0.271   0.240   0.045
    1UNL    C21   24   0.048   0.282   0.002
    1UNL    C22   25  -0.089   0.249  -0.009
    1UNL     O4   26  -0.194   0.344  -0.016
    1UNL    C23   27  -0.111   0.111  -0.023
    1UNL    C24   28  -0.241   0.035  -0.028
    1UNL    C25   29  -0.317   0.036   0.108
    1UNL     H1   30  -0.646  -0.005   0.285
    1UNL     H2   31  -0.746   0.045   0.169
    1UNL     H3   32  -0.596   0.128   0.194
    1UNL     H4   33  -0.608  -0.159   0.093
    1UNL     H5   34  -0.510  -0.105  -0.112
    1UNL     H6   35  -0.504   0.062  -0.077
    1UNL     H7   36  -0.653  -0.012  -0.093
    1UNL     H8   37  -0.420  -0.091   0.242
    1UNL     H9   38  -0.387  -0.303   0.144
    1UNL    H10   39  -0.199  -0.324  -0.009
    1UNL    H11   40  -0.238  -0.025  -0.280
    1UNL    H12   41  -0.172  -0.189  -0.291
    1UNL    H13   42  -0.335  -0.167  -0.248
    1UNL    H14   43   0.385   0.083   0.040
    1UNL    H15   44   0.444  -0.197  -0.052
    1UNL    H16   45   0.646  -0.244   0.153
    1UNL    H17   46   0.871  -0.186   0.217
    1UNL    H18   47   0.946   0.042   0.186
    1UNL    H19   48   0.819   0.192   0.048
    1UNL    H20   49   0.593   0.132  -0.028
    1UNL    H21   50   0.272   0.330   0.074
    1UNL    H22   51   0.065   0.384   0.014
    1UNL    H23   52  -0.282   0.303  -0.032
    1UNL    H24   53  -0.311   0.091  -0.092
    1UNL    H25   54  -0.358   0.134   0.130
    1UNL    H26   55  -0.246   0.041   0.187
   0.00000   0.00000   0.00000   0.00000   0.00000   0.00000   0.00000   0.00000   0.00000
Generated with MDTraj, t= 89.0
 55
    1UNL     C1    1  -0.651   0.039   0.157
    1UNL     C2    2  -0.559  -0.059   0.080
    1UNL     C3    3  -0.552  -0.010  -0.066
    1UNL     C4    4  -0.419  -0.076   0.140
    1UNL     C5    5  -0.367  -0.211   0.090
    1UNL     C6    6  -0.268  -0.227   0.002
    1UNL     C7    7  -0.192  -0.114  -0.069
    1UNL     C8    8  -0.197  -0.134  -0.225
    1UNL     O1    9  -0.049  -0.120  -0.031
    1UNL     C9   10  -0.008   0.011  -0.017
    1UNL    C10   11   0.125   0.049   0.003
    1UNL    C11   12   0.224  -0.048  -0.030
    1UNL     O2   13   0.203  -0.163  -0.062
    1UNL    C12   14   0.366  -0.016   0.000
    1UNL    C13   15   0.463  -0.107   0.009
    1UNL    C14   16   0.596  -0.065   0.046
    1UNL    C15   17   0.691  -0.157   0.091
    1UNL    C16   18   0.820  -0.116   0.126
    1UNL    C17   19   0.857   0.014   0.115
    1UNL    C18   20   0.773   0.108   0.058
    1UNL    C19   21   0.643   0.064   0.019
    1UNL    C20   22   0.152   0.187   0.027
    1UNL     O3   23   0.278   0.234   0.032
    1UNL    C21   24   0.043   0.281   0.023
    1UNL    C22   25  -0.084   0.238   0.001
    1UNL     O4   26  -0.182   0.330  -0.010
    1UNL    C23   27  -0.110   0.103  -0.019
    1UNL    C24   28  -0.239   0.028  -0.031
    1UNL    C25   29  -0.318   0.034   0.102
    1UNL     H1   30  -0.683   0.017   0.260
    1UNL     H2   31  -0.749   0.048   0.113
    1UNL     H3   32  -0.608   0.143   0.160
    1UNL     H4   33  -0.613  -0.150   0.078
    1UNL     H5   34  -0.485  -0.062  -0.138
    1UNL     H6   35  -0.524   0.093  -0.069
    1UNL     H7   36  -0.649  -0.006  -0.098
    1UNL     H8   37  -0.440  -0.071   0.238
    1UNL     H9   38  -0.422  -0.297   0.129
    1UNL    H10   39  -0.247  -0.321  -0.046
    1UNL    H11   40  -0.119  -0.087  -0.275
    1UNL    H12   41  -0.199  -0.240  -0.249
    1UNL    H13   42  -0.290  -0.103  -0.276
    1UNL    H14   43   0.382   0.077   0.055
    1UNL    H15   44   0.436  -0.207  -0.029
    1UNL    H16   45   0.664  -0.260   0.116
    1UNL    H17   46   0.884  -0.191   0.176
    1UNL    H18   47   0.959   0.045   0.109
    1UNL    H19   48   0.817   0.191   0.000
    1UNL    H20   49   0.579   0.133  -0.030
    1UNL    H21   50   0.267   0.331   0.049
    1UNL    H22   51   0.067   0.382   0.052
    1UNL    H23   52  -0.269   0.287  -0.020
    1UNL    H24   53  -0.303   0.080  -0.104
    1UNL    H25   54  -0.351   0.132   0.138
    1UNL    H26   55  -0.244   0.032   0.178
   0.00000   0.00000   0.00000   0.00000   0.00000   0.00000   0.00000   0.00000   0.00000
Generated with MDTraj, t= 90.0
 55
    1UNL     C1    1  -0.637   0.086   0.128
    1UNL     C2    2  -0.573  -0.034   0.055
    1UNL     C3    3  -0.581  -0.007  -0.090
    1UNL     C4    4  -0.437  -0.085   0.119
    1UNL     C5    5  -0.390  -0.223   0.073
    1UNL     C6    6  -0.279  -0.235   0.006
    1UNL     C7    7  -0.199  -0.124  -0.057
    1UNL     C8    8  -0.201  -0.142  -0.208
    1UNL     O1    9  -0.057  -0.128  -0.025
    1UNL     C9   10  -0.014   0.003  -0.013
    1UNL    C10   11   0.119   0.048   0.010
    1UNL    C11   12   0.235  -0.049  -0.009
    1UNL     O2   13   0.220  -0.157  -0.065
    1UNL    C12   14   0.371  -0.010   0.028
    1UNL    C13   15   0.478  -0.088   0.031
    1UNL    C14   16   0.622  -0.056   0.051
    1UNL    C15   17   0.711  -0.159   0.080
    1UNL    C16   18   0.842  -0.124   0.103
    1UNL    C17   19   0.886   0.009   0.088
    1UNL    C18   20   0.795   0.105   0.051
    1UNL    C19   21   0.659   0.074   0.031
    1UNL    C20   22   0.150   0.191   0.010
    1UNL     O3   23   0.280   0.236   0.023
    1UNL    C21   24   0.034   0.275   0.013
    1UNL    C22   25  -0.097   0.233   0.004
    1UNL     O4   26  -0.201   0.324   0.027
    1UNL    C23   27  -0.121   0.094  -0.006
    1UNL    C24   28  -0.250   0.022  -0.017
    1UNL    C25   29  -0.323   0.019   0.118
    1UNL     H1   30  -0.639   0.058   0.234
    1UNL     H2   31  -0.739   0.088   0.093
    1UNL     H3   32  -0.577   0.178   0.105
    1UNL     H4   33  -0.646  -0.110   0.073
    1UNL     H5   34  -0.523  -0.086  -0.135
    1UNL     H6   35  -0.534   0.086  -0.112
    1UNL     H7   36  -0.682   0.006  -0.125
    1UNL     H8   37  -0.465  -0.098   0.218
    1UNL     H9   38  -0.434  -0.317   0.101
    1UNL    H10   39  -0.236  -0.334  -0.007
    1UNL    H11   40  -0.164  -0.051  -0.246
    1UNL    H12   41  -0.143  -0.225  -0.246
    1UNL    H13   42  -0.300  -0.162  -0.254
    1UNL    H14   43   0.387   0.087   0.074
    1UNL    H15   44   0.450  -0.187   0.007
    1UNL    H16   45   0.684  -0.258   0.110
    1UNL    H17   46   0.916  -0.197   0.137
    1UNL    H18   47   0.994   0.021   0.076
    1UNL    H19   48   0.823   0.201   0.014
    1UNL    H20   49   0.587   0.151  -0.009
    1UNL    H21   50   0.292   0.335   0.002
    1UNL    H22   51   0.063   0.374   0.044
    1UNL    H23   52  -0.284   0.275   0.034
    1UNL    H24   53  -0.319   0.064  -0.094
    1UNL    H25   54  -0.368   0.117   0.141
    1UNL    H26   55  -0.268   0.019   0.209
   0.00000   0.00000   0.00000   0.00000   0.00000   0.00000   0.00000   0.00000   0.00000
Generated with MDTraj, t= 91.0
 55
    1UNL     C1    1  -0.621   0.108   0.096
    1UNL     C2    2  -0.568  -0.039   0.047
    1UNL     C3    3  -0.564  -0.037  -0.109
    1UNL     C4    4  -0.441  -0.084   0.119
    1UNL     C5    5  -0.381  -0.216   0.084
    1UNL     C6    6  -0.283  -0.227  -0.004
    1UNL     C7    7  -0.198  -0.116  -0.058
    1UNL     C8    8  -0.204  -0.121  -0.214
    1UNL     O1    9  -0.064  -0.131  -0.015
    1UNL     C9   10  -0.011   0.001  -0.007
    1UNL    C10   11   0.120   0.048   0.013
    1UNL    C11   12   0.237  -0.044   0.010
    1UNL     O2   13   0.224  -0.163  -0.019
    1UNL    C12   14   0.377   0.001   0.015
    1UNL    C13   15   0.472  -0.087   0.031
    1UNL    C14   16   0.612  -0.050   0.041
    1UNL    C15   17   0.704  -0.156   0.061
    1UNL    C16   18   0.839  -0.131   0.071
    1UNL    C17   19   0.889  -0.002   0.067
    1UNL    C18   20   0.804   0.103   0.052
    1UNL    C19   21   0.663   0.081   0.051
    1UNL    C20   22   0.140   0.186   0.019
    1UNL     O3   23   0.266   0.238   0.008
    1UNL    C21   24   0.029   0.276   0.031
    1UNL    C22   25  -0.100   0.226   0.024
    1UNL     O4   26  -0.206   0.311   0.025
    1UNL    C23   27  -0.119   0.091   0.001
    1UNL    C24   28  -0.246   0.018  -0.005
    1UNL    C25   29  -0.328   0.018   0.124
    1UNL     H1   30  -0.625   0.113   0.205
    1UNL     H2   31  -0.719   0.116   0.048
    1UNL     H3   32  -0.550   0.177   0.048
    1UNL     H4   33  -0.644  -0.109   0.081
    1UNL     H5   34  -0.510  -0.119  -0.139
    1UNL     H6   35  -0.505   0.048  -0.138
    1UNL     H7   36  -0.663  -0.021  -0.159
    1UNL     H8   37  -0.473  -0.099   0.222
    1UNL     H9   38  -0.420  -0.310   0.123
    1UNL    H10   39  -0.258  -0.324  -0.037
    1UNL    H11   40  -0.159  -0.034  -0.262
    1UNL    H12   41  -0.163  -0.212  -0.254
    1UNL    H13   42  -0.308  -0.130  -0.239
    1UNL    H14   43   0.400   0.104   0.027
    1UNL    H15   44   0.446  -0.193   0.026
    1UNL    H16   45   0.667  -0.249   0.104
    1UNL    H17   46   0.904  -0.209   0.100
    1UNL    H18   47   0.995   0.004   0.089
    1UNL    H19   48   0.839   0.209   0.062
    1UNL    H20   49   0.591   0.155   0.059
    1UNL    H21   50   0.266   0.334  -0.027
    1UNL    H22   51   0.032   0.381   0.048
    1UNL    H23   52  -0.284   0.264  -0.006
    1UNL    H24   53  -0.308   0.062  -0.088
    1UNL    H25   54  -0.365   0.119   0.153
    1UNL    H26   55  -0.263  -0.000   0.205
   0.00000   0.00000   0.00000   0.00000   0.00000   0.00000   0.00000   0.00000   0.00000
Generated with MDTraj, t= 92.0
 55
    1UNL     C1    1  -0.609   0.079   0.065
    1UNL     C2    2  -0.564  -0.059   0.035
    1UNL     C3    3  -0.552  -0.074  -0.109
    1UNL     C4    4  -0.435  -0.092   0.126
    1UNL     C5    5  -0.379  -0.222   0.087
    1UNL     C6    6  -0.266  -0.237   0.014
    1UNL     C7    7  -0.202  -0.114  -0.057
    1UNL     C8    8  -0.202  -0.120  -0.215
    1UNL     O1    9  -0.060  -0.110  -0.017
    1UNL     C9   10  -0.012   0.024  -0.004
    1UNL    C10   11   0.123   0.060   0.009
    1UNL    C11   12   0.226  -0.041   0.016
    1UNL     O2   13   0.197  -0.156   0.040
    1UNL    C12   14   0.368  -0.003   0.015
    1UNL    C13   15   0.463  -0.098   0.020
    1UNL    C14   16   0.605  -0.065   0.037
    1UNL    C15   17   0.703  -0.165   0.031
    1UNL    C16   18   0.833  -0.135   0.048
    1UNL    C17   19   0.871  -0.001   0.054
    1UNL    C18   20   0.774   0.100   0.069
    1UNL    C19   21   0.644   0.067   0.051
    1UNL    C20   22   0.150   0.196   0.019
    1UNL     O3   23   0.279   0.247   0.036
    1UNL    C21   24   0.048   0.282   0.022
    1UNL    C22   25  -0.091   0.247   0.013
    1UNL     O4   26  -0.194   0.339   0.028
    1UNL    C23   27  -0.117   0.111   0.002
    1UNL    C24   28  -0.246   0.026  -0.011
    1UNL    C25   29  -0.321   0.013   0.120
    1UNL     H1   30  -0.625   0.091   0.173
    1UNL     H2   31  -0.699   0.115   0.009
    1UNL     H3   32  -0.535   0.150   0.031
    1UNL     H4   33  -0.639  -0.135   0.069
    1UNL     H5   34  -0.526  -0.173  -0.127
    1UNL     H6   35  -0.473  -0.016  -0.148
    1UNL     H7   36  -0.647  -0.046  -0.162
    1UNL     H8   37  -0.463  -0.104   0.237
    1UNL     H9   38  -0.437  -0.305   0.123
    1UNL    H10   39  -0.225  -0.336  -0.014
    1UNL    H11   40  -0.118  -0.058  -0.257
    1UNL    H12   41  -0.182  -0.222  -0.236
    1UNL    H13   42  -0.296  -0.103  -0.257
    1UNL    H14   43   0.383   0.100   0.032
    1UNL    H15   44   0.448  -0.202   0.004
    1UNL    H16   45   0.675  -0.268   0.016
    1UNL    H17   46   0.906  -0.222   0.054
    1UNL    H18   47   0.972   0.032   0.056
    1UNL    H19   48   0.808   0.196   0.084
    1UNL    H20   49   0.566   0.144   0.059
    1UNL    H21   50   0.280   0.345   0.053
    1UNL    H22   51   0.065   0.385   0.049
    1UNL    H23   52  -0.281   0.300   0.010
    1UNL    H24   53  -0.293   0.076  -0.101
    1UNL    H25   54  -0.361   0.116   0.137
    1UNL    H26   55  -0.249   0.005   0.197
   0.00000   0.00000   0.00000   0.00000   0.00000   0.00000   0.00000   0.00000   0.00000
Generated with MDTraj, t= 93.0
 55
    1UNL     C1    1  -0.633   0.066   0.061
    1UNL     C2    2  -0.566  -0.075   0.045
    1UNL     C3    3  -0.542  -0.108  -0.100
    1UNL     C4    4  -0.431  -0.081   0.120
    1UNL     C5    5  -0.356  -0.207   0.099
    1UNL     C6    6  -0.264  -0.219   0.001
    1UNL     C7    7  -0.193  -0.107  -0.067
    1UNL     C8    8  -0.204  -0.125  -0.219
    1UNL     O1    9  -0.058  -0.105  -0.031
    1UNL     C9   10  -0.012   0.022   0.001
    1UNL    C10   11   0.120   0.064   0.038
    1UNL    C11   12   0.220  -0.041   0.048
    1UNL     O2   13   0.191  -0.159   0.066
    1UNL    C12   14   0.362  -0.006   0.030
    1UNL    C13   15   0.457  -0.102   0.037
    1UNL    C14   16   0.605  -0.068   0.030
    1UNL    C15   17   0.702  -0.164  -0.004
    1UNL    C16   18   0.839  -0.138   0.009
    1UNL    C17   19   0.880  -0.016   0.052
    1UNL    C18   20   0.785   0.088   0.068
    1UNL    C19   21   0.654   0.062   0.053
    1UNL    C20   22   0.144   0.205   0.047
    1UNL     O3   23   0.275   0.249   0.058
    1UNL    C21   24   0.038   0.288   0.039
    1UNL    C22   25  -0.091   0.246   0.015
    1UNL     O4   26  -0.194   0.336  -0.003
    1UNL    C23   27  -0.112   0.112   0.002
    1UNL    C24   28  -0.242   0.039  -0.028
    1UNL    C25   29  -0.339   0.043   0.090
    1UNL     H1   30  -0.654   0.120   0.155
    1UNL     H2   31  -0.728   0.089   0.006
    1UNL     H3   32  -0.578   0.140   0.006
    1UNL     H4   33  -0.625  -0.163   0.088
    1UNL     H5   34  -0.498  -0.207  -0.120
    1UNL     H6   35  -0.478  -0.040  -0.147
    1UNL     H7   36  -0.639  -0.106  -0.151
    1UNL     H8   37  -0.455  -0.078   0.237
    1UNL     H9   38  -0.392  -0.294   0.155
    1UNL    H10   39  -0.213  -0.310  -0.001
    1UNL    H11   40  -0.175  -0.025  -0.257
    1UNL    H12   41  -0.120  -0.184  -0.247
    1UNL    H13   42  -0.293  -0.170  -0.258
    1UNL    H14   43   0.389   0.098   0.006
    1UNL    H15   44   0.439  -0.208   0.051
    1UNL    H16   45   0.664  -0.248  -0.061
    1UNL    H17   46   0.914  -0.203  -0.014
    1UNL    H18   47   0.987   0.010   0.055
    1UNL    H19   48   0.822   0.190   0.100
    1UNL    H20   49   0.582   0.142   0.056
    1UNL    H21   50   0.272   0.339   0.091
    1UNL    H22   51   0.055   0.392   0.072
    1UNL    H23   52  -0.277   0.289  -0.027
    1UNL    H24   53  -0.281   0.078  -0.126
    1UNL    H25   54  -0.391   0.142   0.086
    1UNL    H26   55  -0.273   0.055   0.173
   0.00000   0.00000   0.00000   0.00000   0.00000   0.00000   0.00000   0.00000   0.00000
Generated with MDTraj, t= 94.0
 55
    1UNL     C1    1  -0.659   0.051   0.072
    1UNL     C2    2  -0.572  -0.069   0.035
    1UNL     C3    3  -0.557  -0.090  -0.116
    1UNL     C4    4  -0.438  -0.072   0.115
    1UNL     C5    5  -0.360  -0.199   0.098
    1UNL     C6    6  -0.248  -0.214   0.026
    1UNL     C7    7  -0.189  -0.115  -0.067
    1UNL     C8    8  -0.206  -0.156  -0.214
    1UNL     O1    9  -0.045  -0.112  -0.029
    1UNL     C9   10  -0.004   0.017  -0.010
    1UNL    C10   11   0.122   0.072   0.034
    1UNL    C11   12   0.226  -0.029   0.057
    1UNL     O2   13   0.203  -0.150   0.064
    1UNL    C12   14   0.370   0.009   0.058
    1UNL    C13   15   0.466  -0.082   0.047
    1UNL    C14   16   0.610  -0.060   0.036
    1UNL    C15   17   0.691  -0.167  -0.009
    1UNL    C16   18   0.826  -0.147  -0.028
    1UNL    C17   19   0.883  -0.027   0.014
    1UNL    C18   20   0.805   0.076   0.060
    1UNL    C19   21   0.671   0.062   0.077
    1UNL    C20   22   0.145   0.208   0.062
    1UNL     O3   23   0.261   0.254   0.120
    1UNL    C21   24   0.035   0.293   0.028
    1UNL    C22   25  -0.092   0.244  -0.005
    1UNL     O4   26  -0.192   0.336  -0.009
    1UNL    C23   27  -0.116   0.104  -0.012
    1UNL    C24   28  -0.244   0.030  -0.043
    1UNL    C25   29  -0.342   0.048   0.075
    1UNL     H1   30  -0.680   0.069   0.178
    1UNL     H2   31  -0.758   0.051   0.019
    1UNL     H3   32  -0.615   0.142   0.035
    1UNL     H4   33  -0.631  -0.162   0.072
    1UNL     H5   34  -0.469  -0.161  -0.121
    1UNL     H6   35  -0.526  -0.002  -0.168
    1UNL     H7   36  -0.635  -0.140  -0.166
    1UNL     H8   37  -0.473  -0.051   0.230
    1UNL     H9   38  -0.387  -0.282   0.160
    1UNL    H10   39  -0.202  -0.314   0.036
    1UNL    H11   40  -0.140  -0.110  -0.282
    1UNL    H12   41  -0.196  -0.263  -0.227
    1UNL    H13   42  -0.311  -0.138  -0.239
    1UNL    H14   43   0.397   0.114   0.055
    1UNL    H15   44   0.441  -0.187   0.043
    1UNL    H16   45   0.643  -0.262  -0.027
    1UNL    H17   46   0.882  -0.223  -0.092
    1UNL    H18   47   0.988  -0.019   0.031
    1UNL    H19   48   0.856   0.162   0.101
    1UNL    H20   49   0.625   0.137   0.142
    1UNL    H21   50   0.233   0.342   0.142
    1UNL    H22   51   0.048   0.394   0.052
    1UNL    H23   52  -0.277   0.287  -0.026
    1UNL    H24   53  -0.283   0.056  -0.146
    1UNL    H25   54  -0.416   0.121   0.034
    1UNL    H26   55  -0.289   0.096   0.154
   0.00000   0.00000   0.00000   0.00000   0.00000   0.00000   0.00000   0.00000   0.00000
Generated with MDTraj, t= 95.0
 55
    1UNL     C1    1  -0.671   0.043   0.083
    1UNL     C2    2  -0.568  -0.072   0.022
    1UNL     C3    3  -0.562  -0.051  -0.130
    1UNL     C4    4  -0.432  -0.060   0.097
    1UNL     C5    5  -0.361  -0.193   0.105
    1UNL     C6    6  -0.250  -0.219   0.038
    1UNL     C7    7  -0.184  -0.125  -0.056
    1UNL     C8    8  -0.171  -0.177  -0.199
    1UNL     O1    9  -0.044  -0.117  -0.015
    1UNL     C9   10  -0.010   0.014   0.006
    1UNL    C10   11   0.114   0.065   0.047
    1UNL    C11   12   0.231  -0.027   0.061
    1UNL     O2   13   0.204  -0.147   0.061
    1UNL    C12   14   0.371   0.012   0.071
    1UNL    C13   15   0.468  -0.076   0.049
    1UNL    C14   16   0.612  -0.059   0.039
    1UNL    C15   17   0.683  -0.166  -0.016
    1UNL    C16   18   0.818  -0.148  -0.045
    1UNL    C17   19   0.878  -0.025  -0.011
    1UNL    C18   20   0.811   0.071   0.057
    1UNL    C19   21   0.675   0.057   0.081
    1UNL    C20   22   0.129   0.197   0.087
    1UNL     O3   23   0.251   0.264   0.118
    1UNL    C21   24   0.022   0.280   0.062
    1UNL    C22   25  -0.092   0.244  -0.004
    1UNL     O4   26  -0.193   0.333  -0.032
    1UNL    C23   27  -0.116   0.106  -0.020
    1UNL    C24   28  -0.234   0.025  -0.055
    1UNL    C25   29  -0.337   0.054   0.051
    1UNL     H1   30  -0.672   0.040   0.191
    1UNL     H2   31  -0.769   0.010   0.041
    1UNL     H3   32  -0.640   0.136   0.040
    1UNL     H4   33  -0.621  -0.173   0.048
    1UNL     H5   34  -0.509  -0.138  -0.176
    1UNL     H6   35  -0.498   0.039  -0.146
    1UNL     H7   36  -0.653  -0.040  -0.178
    1UNL     H8   37  -0.463  -0.026   0.210
    1UNL     H9   38  -0.395  -0.273   0.170
    1UNL    H10   39  -0.203  -0.311   0.057
    1UNL    H11   40  -0.125  -0.115  -0.267
    1UNL    H12   41  -0.119  -0.273  -0.205
    1UNL    H13   42  -0.272  -0.199  -0.239
    1UNL    H14   43   0.396   0.109   0.100
    1UNL    H15   44   0.435  -0.178   0.038
    1UNL    H16   45   0.624  -0.248  -0.056
    1UNL    H17   46   0.867  -0.218  -0.102
    1UNL    H18   47   0.979  -0.009  -0.051
    1UNL    H19   48   0.870   0.146   0.098
    1UNL    H20   49   0.634   0.135   0.144
    1UNL    H21   50   0.252   0.361   0.095
    1UNL    H22   51   0.038   0.387   0.091
    1UNL    H23   52  -0.268   0.291  -0.084
    1UNL    H24   53  -0.263   0.046  -0.162
    1UNL    H25   54  -0.393   0.144   0.021
    1UNL    H26   55  -0.279   0.078   0.138
   0.00000   0.00000   0.00000   0.00000   0.00000   0.00000   0.00000   0.00000   0.00000
Generated with MDTraj, t= 96.0
 55
    1UNL     C1    1  -0.671   0.048   0.062
    1UNL     C2    2  -0.575  -0.064   0.005
    1UNL     C3    3  -0.554  -0.040  -0.137
    1UNL     C4    4  -0.448  -0.068   0.100
    1UNL     C5    5  -0.379  -0.199   0.095
    1UNL     C6    6  -0.266  -0.225   0.025
    1UNL     C7    7  -0.176  -0.120  -0.043
    1UNL     C8    8  -0.163  -0.152  -0.196
    1UNL     O1    9  -0.044  -0.121   0.009
    1UNL     C9   10  -0.006   0.013   0.016
    1UNL    C10   11   0.124   0.058   0.055
    1UNL    C11   12   0.223  -0.039   0.081
    1UNL     O2   13   0.210  -0.159   0.100
    1UNL    C12   14   0.362   0.001   0.059
    1UNL    C13   15   0.457  -0.090   0.044
    1UNL    C14   16   0.604  -0.063   0.026
    1UNL    C15   17   0.692  -0.151  -0.034
    1UNL    C16   18   0.829  -0.131  -0.045
    1UNL    C17   19   0.882  -0.015  -0.001
    1UNL    C18   20   0.804   0.081   0.053
    1UNL    C19   21   0.664   0.062   0.058
    1UNL    C20   22   0.141   0.198   0.066
    1UNL     O3   23   0.257   0.251   0.116
    1UNL    C21   24   0.039   0.285   0.029
    1UNL    C22   25  -0.086   0.238  -0.009
    1UNL     O4   26  -0.188   0.329  -0.033
    1UNL    C23   27  -0.111   0.103  -0.008
    1UNL    C24   28  -0.237   0.024  -0.030
    1UNL    C25   29  -0.343   0.045   0.080
    1UNL     H1   30  -0.693   0.005   0.159
    1UNL     H2   31  -0.760   0.046  -0.004
    1UNL     H3   32  -0.618   0.144   0.063
    1UNL     H4   33  -0.634  -0.164   0.016
    1UNL     H5   34  -0.495  -0.122  -0.173
    1UNL     H6   35  -0.494   0.053  -0.145
    1UNL     H7   36  -0.644  -0.031  -0.197
    1UNL     H8   37  -0.489  -0.053   0.211
    1UNL     H9   38  -0.427  -0.279   0.147
    1UNL    H10   39  -0.216  -0.322   0.037
    1UNL    H11   40  -0.116  -0.063  -0.232
    1UNL    H12   41  -0.090  -0.230  -0.219
    1UNL    H13   42  -0.249  -0.164  -0.258
    1UNL    H14   43   0.392   0.106   0.046
    1UNL    H15   44   0.426  -0.191   0.070
    1UNL    H16   45   0.637  -0.222  -0.092
    1UNL    H17   46   0.885  -0.201  -0.111
    1UNL    H18   47   0.985  -0.007  -0.030
    1UNL    H19   48   0.847   0.179   0.099
    1UNL    H20   49   0.612   0.145   0.102
    1UNL    H21   50   0.254   0.351   0.093
    1UNL    H22   51   0.042   0.389   0.038
    1UNL    H23   52  -0.274   0.287  -0.059
    1UNL    H24   53  -0.277   0.062  -0.128
    1UNL    H25   54  -0.393   0.140   0.056
    1UNL    H26   55  -0.290   0.058   0.172
   0.00000   0.00000   0.00000   0.00000   0.00000   0.00000   0.00000   0.00000   0.00000
Generated with MDTraj, t= 97.0
 55
    1UNL     C1    1  -0.642   0.086   0.049
    1UNL     C2    2  -0.573  -0.045   0.005
    1UNL     C3    3  -0.534  -0.046  -0.149
    1UNL     C4    4  -0.457  -0.084   0.097
    1UNL     C5    5  -0.399  -0.220   0.065
    1UNL     C6    6  -0.275  -0.236   0.013
    1UNL     C7    7  -0.188  -0.120  -0.038
    1UNL     C8    8  -0.157  -0.130  -0.197
    1UNL     O1    9  -0.050  -0.121   0.018
    1UNL     C9   10  -0.008   0.009   0.036
    1UNL    C10   11   0.126   0.053   0.071
    1UNL    C11   12   0.231  -0.046   0.097
    1UNL     O2   13   0.205  -0.160   0.130
    1UNL    C12   14   0.365  -0.013   0.057
    1UNL    C13   15   0.465  -0.098   0.036
    1UNL    C14   16   0.608  -0.067   0.018
    1UNL    C15   17   0.702  -0.156  -0.030
    1UNL    C16   18   0.832  -0.119  -0.045
    1UNL    C17   19   0.866   0.007  -0.004
    1UNL    C18   20   0.776   0.106   0.039
    1UNL    C19   21   0.642   0.066   0.054
    1UNL    C20   22   0.147   0.196   0.057
    1UNL     O3   23   0.276   0.244   0.069
    1UNL    C21   24   0.043   0.276   0.027
    1UNL    C22   25  -0.089   0.235   0.005
    1UNL     O4   26  -0.184   0.331  -0.032
    1UNL    C23   27  -0.113   0.098   0.012
    1UNL    C24   28  -0.241   0.021  -0.009
    1UNL    C25   29  -0.349   0.028   0.105
    1UNL     H1   30  -0.676   0.086   0.152
    1UNL     H2   31  -0.718   0.106  -0.029
    1UNL     H3   32  -0.575   0.175   0.035
    1UNL     H4   33  -0.637  -0.139   0.019
    1UNL     H5   34  -0.458  -0.116  -0.172
    1UNL     H6   35  -0.501   0.051  -0.184
    1UNL     H7   36  -0.622  -0.080  -0.214
    1UNL     H8   37  -0.498  -0.093   0.202
    1UNL     H9   38  -0.454  -0.309   0.097
    1UNL    H10   39  -0.234  -0.331  -0.017
    1UNL    H11   40  -0.072  -0.068  -0.234
    1UNL    H12   41  -0.140  -0.233  -0.217
    1UNL    H13   42  -0.242  -0.100  -0.247
    1UNL    H14   43   0.385   0.091   0.037
    1UNL    H15   44   0.447  -0.202   0.047
    1UNL    H16   45   0.674  -0.256  -0.064
    1UNL    H17   46   0.898  -0.188  -0.095
    1UNL    H18   47   0.972   0.019   0.017
    1UNL    H19   48   0.820   0.188   0.082
    1UNL    H20   49   0.586   0.141   0.114
    1UNL    H21   50   0.274   0.347   0.063
    1UNL    H22   51   0.068   0.382   0.021
    1UNL    H23   52  -0.273   0.292  -0.047
    1UNL    H24   53  -0.296   0.065  -0.098
    1UNL    H25   54  -0.400   0.125   0.107
    1UNL    H26   55  -0.293   0.025   0.196
   0.00000   0.00000   0.00000   0.00000   0.00000   0.00000   0.00000   0.00000   0.00000
Generated with MDTraj, t= 98.0
 55
    1UNL     C1    1  -0.605   0.110   0.039
    1UNL     C2    2  -0.572  -0.032  -0.001
    1UNL     C3    3  -0.525  -0.051  -0.142
    1UNL     C4    4  -0.454  -0.083   0.092
    1UNL     C5    5  -0.399  -0.219   0.061
    1UNL     C6    6  -0.282  -0.237  -0.000
    1UNL     C7    7  -0.188  -0.128  -0.041
    1UNL     C8    8  -0.149  -0.145  -0.193
    1UNL     O1    9  -0.058  -0.130   0.029
    1UNL     C9   10  -0.017   0.001   0.039
    1UNL    C10   11   0.116   0.050   0.063
    1UNL    C11   12   0.224  -0.050   0.078
    1UNL     O2   13   0.204  -0.165   0.115
    1UNL    C12   14   0.363  -0.016   0.058
    1UNL    C13   15   0.465  -0.105   0.070
    1UNL    C14   16   0.604  -0.059   0.032
    1UNL    C15   17   0.696  -0.154  -0.003
    1UNL    C16   18   0.825  -0.110  -0.032
    1UNL    C17   19   0.863   0.020  -0.036
    1UNL    C18   20   0.775   0.113   0.018
    1UNL    C19   21   0.645   0.076   0.051
    1UNL    C20   22   0.147   0.188   0.056
    1UNL     O3   23   0.278   0.236   0.054
    1UNL    C21   24   0.038   0.277   0.037
    1UNL    C22   25  -0.093   0.235   0.012
    1UNL     O4   26  -0.188   0.330   0.002
    1UNL    C23   27  -0.119   0.096   0.011
    1UNL    C24   28  -0.241   0.022  -0.022
    1UNL    C25   29  -0.337   0.026   0.105
    1UNL     H1   30  -0.594   0.136   0.144
    1UNL     H2   31  -0.697   0.158   0.004
    1UNL     H3   32  -0.537   0.187  -0.008
    1UNL     H4   33  -0.653  -0.106   0.014
    1UNL     H5   34  -0.506  -0.154  -0.166
    1UNL     H6   35  -0.441   0.007  -0.167
    1UNL     H7   36  -0.608  -0.017  -0.214
    1UNL     H8   37  -0.499  -0.092   0.188
    1UNL     H9   38  -0.464  -0.303   0.073
    1UNL    H10   39  -0.257  -0.339  -0.024
    1UNL    H11   40  -0.095  -0.056  -0.230
    1UNL    H12   41  -0.089  -0.231  -0.200
    1UNL    H13   42  -0.240  -0.152  -0.246
    1UNL    H14   43   0.379   0.082   0.030
    1UNL    H15   44   0.459  -0.215   0.073
    1UNL    H16   45   0.652  -0.249  -0.018
    1UNL    H17   46   0.895  -0.190  -0.052
    1UNL    H18   47   0.965   0.041  -0.061
    1UNL    H19   48   0.820   0.209   0.053
    1UNL    H20   49   0.585   0.142   0.102
    1UNL    H21   50   0.270   0.334   0.057
    1UNL    H22   51   0.058   0.385   0.022
    1UNL    H23   52  -0.271   0.286  -0.022
    1UNL    H24   53  -0.306   0.065  -0.104
    1UNL    H25   54  -0.368   0.126   0.127
    1UNL    H26   55  -0.286  -0.005   0.193
   0.00000   0.00000   0.00000   0.00000   0.00000   0.00000   0.00000   0.00000   0.00000
Generated with MDTraj, t= 99.0
 55
    1UNL     C1    1  -0.617   0.117   0.017
    1UNL     C2    2  -0.575  -0.033   0.003
    1UNL     C3    3  -0.548  -0.070  -0.137
    1UNL     C4    4  -0.458  -0.076   0.096
    1UNL     C5    5  -0.405  -0.211   0.070
    1UNL     C6    6  -0.283  -0.225   0.016
    1UNL     C7    7  -0.187  -0.121  -0.048
    1UNL     C8    8  -0.184  -0.139  -0.204
    1UNL     O1    9  -0.049  -0.131   0.004
    1UNL     C9   10  -0.003  -0.002   0.025
    1UNL    C10   11   0.125   0.045   0.048
    1UNL    C11   12   0.233  -0.055   0.072
    1UNL     O2   13   0.206  -0.175   0.085
    1UNL    C12   14   0.369  -0.000   0.070
    1UNL    C13   15   0.472  -0.087   0.078
    1UNL    C14   16   0.616  -0.055   0.054
    1UNL    C15   17   0.708  -0.154   0.021
    1UNL    C16   18   0.835  -0.121  -0.021
    1UNL    C17   19   0.866   0.013  -0.039
    1UNL    C18   20   0.772   0.111  -0.005
    1UNL    C19   21   0.652   0.079   0.041
    1UNL    C20   22   0.149   0.185   0.062
    1UNL     O3   23   0.275   0.238   0.095
    1UNL    C21   24   0.042   0.275   0.039
    1UNL    C22   25  -0.089   0.233   0.021
    1UNL     O4   26  -0.201   0.313   0.007
    1UNL    C23   27  -0.108   0.094   0.012
    1UNL    C24   28  -0.234   0.025  -0.020
    1UNL    C25   29  -0.337   0.033   0.102
    1UNL     H1   30  -0.617   0.152   0.121
    1UNL     H2   31  -0.709   0.147  -0.034
    1UNL     H3   32  -0.544   0.188  -0.033
    1UNL     H4   33  -0.666  -0.082   0.036
    1UNL     H5   34  -0.537  -0.180  -0.150
    1UNL     H6   35  -0.459  -0.025  -0.174
    1UNL     H7   36  -0.631  -0.043  -0.208
    1UNL     H8   37  -0.501  -0.068   0.190
    1UNL     H9   38  -0.469  -0.295   0.101
    1UNL    H10   39  -0.243  -0.326   0.030
    1UNL    H11   40  -0.140  -0.051  -0.243
    1UNL    H12   41  -0.118  -0.219  -0.227
    1UNL    H13   42  -0.284  -0.146  -0.250
    1UNL    H14   43   0.374   0.101   0.031
    1UNL    H15   44   0.471  -0.192   0.097
    1UNL    H16   45   0.668  -0.257   0.013
    1UNL    H17   46   0.897  -0.196  -0.071
    1UNL    H18   47   0.954   0.033  -0.103
    1UNL    H19   48   0.793   0.213  -0.038
    1UNL    H20   49   0.580   0.163   0.065
    1UNL    H21   50   0.277   0.332   0.081
    1UNL    H22   51   0.059   0.376   0.040
    1UNL    H23   52  -0.275   0.254  -0.013
    1UNL    H24   53  -0.296   0.067  -0.105
    1UNL    H25   54  -0.379   0.128   0.122
    1UNL    H26   55  -0.276   0.011   0.187
   0.00000   0.00000   0.00000   0.00000   0.00000   0.00000   0.00000   0.00000   0.00000
