[ moleculetype ]
; name        nrexcl
res           1

[ atoms ]
;    nr  type  resnr resid  atom  cgnr     charge       mass
      1 C4        1 res   C1        1      0.000     72.000
      2 SC2       1 res   C2        2      0.000     54.000
      3 SN3r      1 res   C3        3      0.000     54.000
      4 SN4a      1 res   C4        4      0.000     54.000
      5 TP1       1 res   C5        5      0.000     36.000
      6 SP4       1 res   C6        6      0.000     54.000
      7 TN6       1 res   C7        7      0.000     36.000
      8 SP2       1 res   C8        8      0.000     54.000

[ constraints ]
;  ai    aj   funct      b0(nm)
    1     8     1      0.33149
    2     3     1      0.26024
    6     7     1      0.29644
    4     6     1      0.29306

[ bonds ]
;  ai    aj   funct      b0(nm)          k(kJ/mol/nm^2)
    1     2     1      0.38597           9083.7
    4     5     1      0.28216          16698.3
    3     4     1      0.28325          14999.4
    4     7     1      0.28853          17610.9

[ angles ]
;  ai    aj    ak  funct     th0(deg)        k(kJ/mol/rad^2)
    1     2     3     1    131.70679            79.44
    2     1     8     1    131.77194           220.68
    2     3     4     1    128.42269            81.77
    3     4     5     1    136.26726            31.79
    3     4     6     1    125.87081            17.69
    3     4     7     1    107.41503           359.86
    4     6     7     1     58.60663          1073.38
    4     7     6     1     60.08387          2388.69
    5     4     6     1     71.68070           418.23
    5     4     7     1    112.46621            22.53
    6     4     7     1     61.30977          1027.66

[ dihedrals ]
;  ai    aj    ak    al  funct   phi0(deg)        k(kJ/mol)   mult
    1     2     3     4     1    -52.34518       23.993      1
    2     3     4     5     1   -129.74945       26.335      1
    2     3     4     6     1    -31.85728       24.974      1
    2     3     4     7     1     28.88008       25.302      1
    3     2     1     8     1    136.42385       28.703      1
    3     4     6     7     1    -98.76910       23.990      1
    3     4     7     6     1     55.79290       26.863      1
    5     4     6     7     1     42.62508       23.682      1
    5     4     7     6     1   -143.27327       25.712      1
