[ moleculetype ]
; name        nrexcl
res           1

[ atoms ]
;    nr  type resnr resid  atom  cgnr     charge       mass
      1 TN3r      1 res   C1        1      0.000     36.000
      2 TC3       1 res   C2        2      0.000     36.000
      3 TC5       1 res   C3        3      0.000     36.000
      4 TC3       1 res   C4        4      0.000     36.000
      5 TN6       1 res   C5        5      0.000     36.000
      6 SN4a      1 res   C6        6      0.000     54.000
      7 TP1       1 res   C7        7      0.000     36.000
      8 TN6       1 res   C8        8      0.000     36.000
      9 TN6       1 res   C9        9      0.000     36.000
     10 TN6       1 res   C10      10      0.000     36.000
     11 SC4       1 res   C11      11      0.000     54.000
     12 TC5       1 res   C12      12      0.000     36.000
     13 TN4a      1 res   C13      13      0.000     36.000
     14 TC3       1 res   C14      14      0.000     36.000
     15 TC4       1 res   C15      15      0.000     36.000
     16 SC3       1 res   C16      16      0.000     54.000
     17 C1        1 res   C17      17      0.000     72.000
     18 SC1       1 res   C18      18      0.000     54.000
     19 TN3r      1 res   C19      19      0.000     36.000
     20 TC4       1 res   C20      20      0.000     36.000

[ bonds ]
;  ai    aj   funct      b0(nm)        k
    1     2     1      0.28871    20000
    2     3     1      0.30007    20000
    2    12     1      0.26510    20000
    3     4     1      0.24295    20000
    3    11     1      0.29883    20000
    3    12     1      0.28155    20000
    4     5     1      0.25922    20000
    5     6     1      0.23411    20000
    5    11     1      0.24595    20000
    6     7     1      0.31110    20000
    6     8     1      0.30596    20000
    6    10     1      0.26630    20000
    8     9     1      0.24272    20000
    9    10     1      0.21759    20000
   12    13     1      0.23648    20000
   12    14     1      0.29919    20000
   12    20     1      0.29361    20000
   14    15     1      0.30674    20000
   15    16     1      0.29582    20000
   15    20     1      0.39278    20000
   16    17     1      0.36679    20000
   16    20     1      0.28549    20000
   17    18     1      0.39744    20000
   18    19     1      0.28434    20000
