1TPCN04569
22
    1res  C1    1    1.044   0.276  -0.055
    1res  C2    2    0.786   0.128   0.059
    1res  C3    3    0.535   0.209  -0.035
    1res  C4    4    0.411   0.090   0.197
    1res  C5    5    0.195   0.127   0.090
    1res  C6    6    0.314  -0.204  -0.065
    1res  C7    7    0.033  -0.114   0.111
    1res  C8    8   -0.112  -0.311  -0.035
    1res  C9    9   -0.032  -0.363  -0.287
    1res  C10   10   -0.185  -0.237  -0.447
    1res  C11   11   -0.253  -0.037  -0.310
    1res  C12   12   -0.172   0.010   0.011
    1res  C13   13   -0.360  -0.026   0.287
    1res  C14   14   -0.217  -0.142   0.546
    1res  C15   15   -0.377  -0.316   0.344
    1res  C16   16   -0.548  -0.271   0.172
    1res  C17   17   -0.532  -0.052   0.143
    1res  C18   18   -0.618   0.152  -0.053
    1res  C19   19   -0.595   0.317  -0.301
    1res  C20   20   -0.838   0.277  -0.122
    1res  C21   21   -0.918   0.052  -0.122
    1res  C22   22   -0.806  -0.005   0.055
  10.00000  10.00000  10.00000
