[ moleculetype ]
; name        nrexcl
res           1

[ atoms ]
;    nr  type resnr resid  atom  cgnr     charge       mass
      1 N4a       1 res   C1        1      0.000     72.000
      2 SC3       1 res   C2        2      0.000     54.000
      3 SN4a      1 res   C3        3      0.000     54.000
      4 SC4       1 res   C4        4      0.000     54.000
      5 SN6       1 res   C5        5      0.000     54.000
      6 SN4a      1 res   C6        6      0.000     54.000
      7 SC4       1 res   C7        7      0.000     54.000
      8 SC4       1 res   C8        8      0.000     54.000
      9 SC3       1 res   C9        9      0.000     54.000
     10 TC5       1 res   C10      10      0.000     36.000
     11 TC5       1 res   C11      11      0.000     36.000
     12 TN2a      1 res   C12      12      0.000     36.000
     13 TC3       1 res   C13      13      0.000     36.000
     14 SC4       1 res   C14      14      0.000     54.000

[ bonds ]
;  ai    aj   funct      b0(nm)        k
    1     2     1      0.45597    20000
    2     3     1      0.39783    20000
    2     4     1      0.27381    20000
    2    14     1      0.33484    20000
    4     5     1      0.30966    20000
    4     7     1      0.33827    20000
    4    14     1      0.32596    20000
    5     6     1      0.33320    20000
    5     7     1      0.32186    20000
    7     8     1      0.36356    20000
    7    13     1      0.28711    20000
    8     9     1      0.27195    20000
    8     9     1      0.27195    20000
    8    13     1      0.28881    20000
    9    10     1      0.26631    20000
   10    11     1      0.26212    20000
   10    12     1      0.16740    20000
   11    12     1      0.20234    20000
