[ moleculetype ]
; name        nrexcl
res           1

[ atoms ]
;    nr  type resnr resid  atom  cgnr     charge       mass
      1 C1        1 res   C1        1      0.000     72.000
      2 C1        1 res   C2        2      0.000     72.000
      3 C1        1 res   C3        3      0.000     72.000
      4 SC2       1 res   C4        4      0.000     54.000
      5 N4a       1 res   C5        5      0.000     72.000
      6 SN6       1 res   C6        6      0.000     54.000
      7 SC3       1 res   C7        7      0.000     54.000
      8 TC3       1 res   C8        8      0.000     36.000
      9 SC4       1 res   C9        9      0.000     54.000
     10 TC5       1 res   C10      10      0.000     36.000
     11 SN6       1 res   C11      11      0.000     54.000
     12 TN6d      1 res   C12      12      0.000     36.000
     13 TC3       1 res   C13      13      0.000     36.000
     14 TC3       1 res   C14      14      0.000     36.000

[ bonds ]
;  ai    aj   funct      b0(nm)        k
    1     2     1      0.49718    20000
    2     3     1      0.42415    20000
    3     4     1      0.40377    20000
    4     5     1      0.37153    20000
    5     6     1      0.31738    20000
    6     7     1      0.27898    20000
    7     8     1      0.33255    20000
    7     9     1      0.41701    20000
    7    14     1      0.24281    20000
    8     9     1      0.36545    20000
    9    10     1      0.26624    20000
    9    13     1      0.28663    20000
   10    11     1      0.22343    20000
   10    12     1      0.22774    20000
   10    13     1      0.25131    20000
   11    12     1      0.26103    20000
