[ moleculetype ]
; name        nrexcl
res           1

[ atoms ]
;    nr  type resnr resid  atom  cgnr     charge       mass
      1 N4a       1 res   C1        1      0.000     72.000
      2 TC5       1 res   C2        2      0.000     36.000
      3 TC5       1 res   C3        3      0.000     36.000
      4 TC5       1 res   C4        4      0.000     36.000
      5 TC5       1 res   C5        5      0.000     36.000
      6 SN6       1 res   C6        6      0.000     54.000
      7 SN4a      1 res   C7        7      0.000     54.000
      8 TN3r      1 res   C8        8      0.000     36.000
      9 SN4a      1 res   C9        9      0.000     54.000
     10 TN6       1 res   C10      10      0.000     36.000
     11 TN6       1 res   C11      11      0.000     36.000
     12 TN6       1 res   C12      12      0.000     36.000
     13 TN6       1 res   C13      13      0.000     36.000
     14 TN6       1 res   C14      14      0.000     36.000
     15 TN6       1 res   C15      15      0.000     36.000
     16 SN6       1 res   C16      16      0.000     54.000

[ bonds ]
;  ai    aj   funct      b0(nm)        k
    1     2     1      0.23895    20000
    1     5     1      0.31999    20000
    2     3     1      0.25825    20000
    2     4     1      0.30195    20000
    3     4     1      0.29097    20000
    5     6     1      0.26604    20000
    5    16     1      0.31144    20000
    6     7     1      0.34954    20000
    6    16     1      0.34098    20000
    7     8     1      0.23871    20000
    7    13     1      0.25707    20000
    7    15     1      0.29595    20000
    8     9     1      0.29005    20000
    9    10     1      0.25154    20000
    9    12     1      0.29878    20000
   10    11     1      0.24341    20000
   11    12     1      0.24349    20000
   13    14     1      0.24504    20000
   14    15     1      0.26578    20000
