[ moleculetype ]
; name        nrexcl
res           1

[ atoms ]
;    nr  type  resnr resid  atom  cgnr     charge       mass
      1 SN6a      1 res   C1        1      0.000     54.000
      2 TC5       1 res   C2        2      0.000     36.000
      3 SN3a      1 res   C3        3      0.000     54.000
      4 TN6d      1 res   C4        4      0.000     36.000

[ bonds ]
;  ai    aj   funct      b0(nm)          k(kJ/mol/nm^2)
    1     2     1      0.34754         130120.0
    1     4     1      0.24962          73591.6
    2     3     1      0.24967         139033.1
    2     4     1      0.20890         118093.3

[ angles ]
;  ai    aj    ak  funct     th0(deg)        k(kJ/mol/rad^2)
    1     2     3     1    106.04812          2239.94
    1     2     4     1     45.30054          4262.52
    1     4     2     1     98.19629          2339.49
    2     1     4     1     36.50314          5942.77
    3     2     4     1    150.94889          1471.38

[ dihedrals ]
;  ai    aj    ak    al  funct   phi0(deg)        k(kJ/mol)   mult
    1     4     2     3     1    179.93802       17.763      1
    1     4     2     3     1    179.87696       16.050      2
    1     4     2     3     1    179.82605       13.454      3
    3     2     1     4     1     -0.79967       11.450      1
    3     2     1     4     1    178.38502       11.053      2
    3     2     1     4     1     -2.46308       10.412      3
