1TPCN04695
44
    1res  C1    1   -1.037  -0.162   0.290
    1res  C2    2   -0.880  -0.312   0.052
    1res  C3    3   -0.828  -0.201  -0.132
    1res  C4    4   -0.767   0.030  -0.064
    1res  C5    5   -0.518  -0.066   0.023
    1res  C6    6   -0.334  -0.121   0.247
    1res  C7    7   -0.277  -0.210  -0.102
    1res  C8    8   -0.166   0.064  -0.009
    1res  C9    9    0.023  -0.018   0.255
    1res  C10   10    0.053  -0.157  -0.003
    1res  C11   11    0.305  -0.096   0.026
    1res  C12   12    0.420   0.123   0.129
    1res  C13   13    0.590  -0.012  -0.020
    1res  C14   14    0.828   0.057   0.067
    1res  C15   15    0.991   0.250   0.223
    1res  C16   16    1.044   0.493   0.001
    1res  C17   17    1.226   0.459  -0.258
    1res  C18   18    1.338   0.468   0.012
    1res  C19   19    1.258   0.643   0.150
    1res  C20   20    1.063   0.576   0.239
    1res  C21   21    1.126   0.089   0.003
    1res  C22   22    1.041  -0.039  -0.141
    1res  C23   23    0.878  -0.150  -0.068
    1res  C24   24    0.892  -0.429  -0.057
    1res  C25   25    1.144  -0.493  -0.210
    1res  C26   26    1.155  -0.487   0.084
    1res  C27   27    1.005  -0.421   0.227
    1res  C28   28    0.778  -0.446   0.162
    1res  C29   29    0.498   0.015  -0.242
    1res  C30   30    0.134  -0.073  -0.233
    1res  C31   31   -0.469  -0.197   0.477
    1res  C32   32   -0.624  -0.298   0.309
    1res  C33   33   -0.507  -0.385   0.121
    1res  C34   34   -0.793   0.305  -0.154
    1res  C35   35   -1.084   0.370  -0.308
    1res  C36   36   -1.371   0.354  -0.266
    1res  C37   37   -1.223   0.623  -0.389
    1res  C38   38   -1.072   0.703  -0.245
    1res  C39   39   -0.891   0.560  -0.338
    1res  C40   40   -0.960   0.064  -0.250
    1res  C41   41   -0.802  -0.098  -0.328
    1res  C42   42   -1.025  -0.462  -0.089
    1res  C43   43   -1.220  -0.320  -0.031
    1res  C44   44   -1.160  -0.359   0.205
  10.00000  10.00000  10.00000
