[ moleculetype ]
; name        nrexcl
res           1

[ atoms ]
;    nr  type resnr resid  atom  cgnr     charge       mass
      1 TC4       1 res   C1        1      0.000     36.000
      2 TN4a      1 res   C2        2      0.000     36.000
      3 TN6       1 res   C3        3      0.000     36.000
      4 SN4a      1 res   C4        4      0.000     54.000
      5 TN3r      1 res   C5        5      0.000     36.000
      6 SC5       1 res   C6        6      0.000     54.000
      7 TC3       1 res   C7        7      0.000     36.000
      8 SC4       1 res   C8        8      0.000     54.000
      9 TC3       1 res   C9        9      0.000     36.000
     10 SC4       1 res   C10      10      0.000     54.000
     11 SC4       1 res   C11      11      0.000     54.000
     12 TC3       1 res   C12      12      0.000     36.000
     13 TN6       1 res   C13      13      0.000     36.000
     14 SN4a      1 res   C14      14      0.000     54.000
     15 TN3r      1 res   C15      15      0.000     36.000
     16 SN4a      1 res   C16      16      0.000     54.000
     17 TP1       1 res   C17      17      0.000     36.000
     18 TN6       1 res   C18      18      0.000     36.000
     19 TN6       1 res   C19      19      0.000     36.000
     20 TN6       1 res   C20      20      0.000     36.000
     21 TN6       1 res   C21      21      0.000     36.000
     22 TN6       1 res   C22      22      0.000     36.000
     23 TN6       1 res   C23      23      0.000     36.000
     24 SN4a      1 res   C24      24      0.000     54.000
     25 TP1       1 res   C25      25      0.000     36.000
     26 TN6       1 res   C26      26      0.000     36.000
     27 TN6       1 res   C27      27      0.000     36.000
     28 TN6       1 res   C28      28      0.000     36.000
     29 SC4       1 res   C29      29      0.000     54.000
     30 TC3       1 res   C30      30      0.000     36.000
     31 SC4       1 res   C31      31      0.000     54.000
     32 TN6       1 res   C32      32      0.000     36.000
     33 TN6       1 res   C33      33      0.000     36.000
     34 TN3r      1 res   C34      34      0.000     36.000
     35 SN4a      1 res   C35      35      0.000     54.000
     36 TP1       1 res   C36      36      0.000     36.000
     37 TN6       1 res   C37      37      0.000     36.000
     38 TN6       1 res   C38      38      0.000     36.000
     39 TN6       1 res   C39      39      0.000     36.000
     40 TN6       1 res   C40      40      0.000     36.000
     41 TN6       1 res   C41      41      0.000     36.000
     42 TN6       1 res   C42      42      0.000     36.000
     43 TN6       1 res   C43      43      0.000     36.000
     44 TN6       1 res   C44      44      0.000     36.000

[ bonds ]
;  ai    aj   funct      b0(nm)        k
    1     2     1      0.32229    20000
    1    44     1      0.24697    20000
    2     3     1      0.22075    20000
    2    42     1      0.25216    20000
    3     4     1      0.24840    20000
    3    41     1      0.22268    20000
    4     5     1      0.28129    20000
    4    34     1      0.28970    20000
    4    40     1      0.26993    20000
    5     6     1      0.29525    20000
    6     7     1      0.36437    20000
    6     8     1      0.35730    20000
    6    31     1      0.27745    20000
    6    33     1      0.34051    20000
    7     8     1      0.31064    20000
    8     9     1      0.33503    20000
    8    10     1      0.31173    20000
    9    10     1      0.29399    20000
   10    11     1      0.26038    20000
   10    30     1      0.25773    20000
   11    12     1      0.26821    20000
   11    29     1      0.34844    20000
   11    30     1      0.31088    20000
   12    13     1      0.26331    20000
   13    14     1      0.26273    20000
   13    29     1      0.24220    20000
   14    15     1      0.29659    20000
   14    21     1      0.30571    20000
   14    23     1      0.25147    20000
   15    16     1      0.33300    20000
   16    17     1      0.31856    20000
   16    18     1      0.29466    20000
   16    20     1      0.25256    20000
   18    19     1      0.23632    20000
   19    20     1      0.22378    20000
   21    22     1      0.21086    20000
   22    23     1      0.21038    20000
   23    24     1      0.27978    20000
   24    25     1      0.30137    20000
   24    26     1      0.30404    20000
   24    28     1      0.24763    20000
   26    27     1      0.21673    20000
   27    28     1      0.23803    20000
   31    32     1      0.24982    20000
   32    33     1      0.23890    20000
   34    35     1      0.33531    20000
   35    36     1      0.29028    20000
   35    37     1      0.30005    20000
   35    39     1      0.27253    20000
   37    38     1      0.22391    20000
   38    39     1      0.24891    20000
   40    41     1      0.23957    20000
   42    43     1      0.24863    20000
   43    44     1      0.24659    20000
