[ moleculetype ]
; name        nrexcl
res           1

[ atoms ]
;    nr  type resnr resid  atom  cgnr     charge       mass
      1 N4a       1 res   C1        1      0.000     72.000
      2 SC4       1 res   C2        2      0.000     54.000
      3 TC3       1 res   C3        3      0.000     36.000
      4 TC5       1 res   C4        4      0.000     36.000
      5 SP2       1 res   C5        5      0.000     54.000
      6 TC3       1 res   C6        6      0.000     36.000
      7 SC4       1 res   C7        7      0.000     54.000
      8 TC3       1 res   C8        8      0.000     36.000
      9 SC4       1 res   C9        9      0.000     54.000
     10 SC4       1 res   C10      10      0.000     54.000
     11 SN6       1 res   C11      11      0.000     54.000
     12 TN6       1 res   C12      12      0.000     36.000
     13 SN4a      1 res   C13      13      0.000     54.000
     14 TN6       1 res   C14      14      0.000     36.000
     15 SN4a      1 res   C15      15      0.000     54.000
     16 TP1       1 res   C16      16      0.000     36.000
     17 TN6       1 res   C17      17      0.000     36.000
     18 TN6       1 res   C18      18      0.000     36.000
     19 TN6       1 res   C19      19      0.000     36.000
     20 TN6       1 res   C20      20      0.000     36.000
     21 TN6       1 res   C21      21      0.000     36.000
     22 TC4       1 res   C22      22      0.000     36.000
     23 TP1       1 res   C23      23      0.000     36.000
     24 TC3       1 res   C24      24      0.000     36.000

[ bonds ]
;  ai    aj   funct      b0(nm)        k
    1     2     1      0.35137    20000
    2     3     1      0.27724    20000
    2     4     1      0.24875    20000
    3     4     1      0.26336    20000
    4     5     1      0.33250    20000
    4     6     1      0.26679    20000
    4     7     1      0.26943    20000
    6     7     1      0.27635    20000
    7     8     1      0.39187    20000
    7     9     1      0.31379    20000
    8     9     1      0.37843    20000
    9    10     1      0.26181    20000
    9    24     1      0.28218    20000
   10    11     1      0.28734    20000
   10    22     1      0.39118    20000
   10    24     1      0.31416    20000
   11    12     1      0.23925    20000
   12    13     1      0.30679    20000
   12    22     1      0.25318    20000
   13    14     1      0.25317    20000
   13    21     1      0.28913    20000
   14    15     1      0.30509    20000
   14    20     1      0.24290    20000
   15    16     1      0.25691    20000
   15    17     1      0.25816    20000
   15    19     1      0.30372    20000
   17    18     1      0.25272    20000
   18    19     1      0.22392    20000
   20    21     1      0.23439    20000
   22    23     1      0.26486    20000
