[ moleculetype ]
; name        nrexcl
res           1

[ atoms ]
;    nr  type resnr resid  atom  cgnr     charge       mass
      1 C1        1 res   C1        1      0.000     72.000
      2 C1        1 res   C2        2      0.000     72.000
      3 C1        1 res   C3        3      0.000     72.000
      4 C1        1 res   C4        4      0.000     72.000
      5 C1        1 res   C5        5      0.000     72.000
      6 C1        1 res   C6        6      0.000     72.000
      7 SN4a      1 res   C7        7      0.000     54.000
      8 P4        1 res   C8        8      0.000     72.000
      9 TP1       1 res   C9        9      0.000     36.000

[ bonds ]
;  ai    aj   funct      b0(nm)        k
    1     2     1      0.36904    20000
    2     3     1      0.46300    20000
    3     4     1      0.47515    20000
    4     5     1      0.44228    20000
    5     6     1      0.45335    20000
    6     7     1      0.29447    20000
    7     8     1      0.37600    20000
    8     9     1      0.26596    20000
