[ moleculetype ]
; name        nrexcl
res           1

[ atoms ]
;    nr  type  resnr resid  atom  cgnr     charge       mass
      1 TC4       1 res   C1        1      0.000     36.000
      2 SN6       1 res   C2        2      0.000     54.000
      3 SN5a      1 res   C3        3      0.000     54.000
      4 SC5       1 res   C4        4      0.000     54.000
      5 N4a       1 res   C5        5      0.000     72.000
      6 TC5       1 res   C6        6      0.000     36.000
      7 TC5       1 res   C7        7      0.000     36.000
      8 TC5       1 res   C8        8      0.000     36.000
      9 TN6       1 res   C9        9      0.000     36.000
     10 TN4a      1 res   C10      10      0.000     36.000
     11 TC3       1 res   C11      11      0.000     36.000
     12 TP1       1 res   C12      12      0.000     36.000
     13 SN4a      1 res   C13      13      0.000     54.000
     14 TC5       1 res   C14      14      0.000     36.000
     15 TC5       1 res   C15      15      0.000     36.000
     16 TC5       1 res   C16      16      0.000     36.000
     17 SP4       1 res   C17      17      0.000     54.000

[ constraints ]
;  ai    aj   funct      b0(nm)
    4     5     1      0.34684
   13    14     1      0.24566
    6     8     1      0.29733
    1     3     1      0.35748
    9    10     1      0.21038
    1     9     1      0.26365
    2     4     1      0.28449
   14    15     1      0.25598
    5     6     1      0.35034
    6     7     1      0.25618
   15    16     1      0.28764
    1     2     1      0.36462
   10    11     1      0.26016
   10    17     1      0.24182
    2     3     1      0.28663
   11    12     1      0.22652
    7     8     1      0.28737
    4     9     1      0.22620
    3     4     1      0.31863
   11    17     1      0.31505
   14    16     1      0.29778

[ bonds ]
;  ai    aj   funct      b0(nm)          k(kJ/mol/nm^2)
   11    13     1      0.22020           2784.2

[ angles ]
;  ai    aj    ak  funct     th0(deg)        k(kJ/mol/rad^2)
    1     2     3     1     65.30516          4399.48
    1     2     4     1     73.82139          2903.03
    1     3     2     1     67.93788          2831.30
    1     3     4     1     71.26864          2661.66
    1     9     4     1    107.33653          1029.29
    1     9    10     1     83.76950           226.64
    2     1     3     1     46.75694          6107.17
    2     1     9     1     75.06904          1971.03
    2     3     4     1     55.76627          2652.79
    2     4     3     1     56.39930          4746.63
    2     4     5     1    111.18726          1037.41
    2     4     9     1     99.33756          1561.77
    3     1     9     1     58.07622          3339.75
    3     2     4     1     67.83458          2982.18
    3     4     5     1     55.54101          1693.92
    3     4     9     1     67.55674          2626.50
    4     5     6     1    138.05913            46.38
    4     9    10     1    116.72270           141.76
    5     4     9     1     61.99728           687.66
    5     6     7     1    145.46859           733.13
    5     6     8     1     84.42497           728.97
    6     7     8     1     66.03893          8917.06
    6     8     7     1     51.93607         10008.89
    7     6     8     1     62.02501         13123.83
    9    10    11     1    148.01392            79.55
    9    10    17     1    105.95701           266.66
   10    11    12     1     67.20571           792.39
   10    11    13     1    132.30039            56.13
   10    11    17     1     48.55334          3681.72
   10    17    11     1     53.77498          2454.03
   11    10    17     1     77.67152          1615.16
   11    13    14     1    157.77944           110.13
   12    11    13     1    148.09564           183.28
   12    11    17     1     92.47252           411.59
   13    11    17     1     96.28734            25.27
   13    14    15     1    145.44047          1108.51
   13    14    16     1     83.77721          1334.89
   14    15    16     1     66.12608          6812.55
   14    16    15     1     51.82476          6252.38
   15    14    16     1     62.04919          6684.65

[ dihedrals ]
;  ai    aj    ak    al  funct   phi0(deg)        k(kJ/mol)   mult
    1     2     3     4     1     97.98004        4.752      1
    1     2     4     3     1   -110.95039        3.970      1
    1     2     4     5     1   -101.08676        8.576      1
    1     2     4     9     1   -166.89443        5.542      1
    1     3     2     4     1    -97.98004        4.752      1
    1     3     4     2     1    104.96172        5.486      1
    1     3     4     5     1    -64.14092        9.305      1
    1     3     4     9     1   -136.97131        5.547      1
    1     9     4     2     1    160.92019        7.077      1
    1     9     4     3     1    112.94893        5.516      1
    1     9     4     5     1     50.97756        7.044      1
    1     9    10    11     1     59.49560       25.623      1
    1     9    10    17     1    -35.52234       26.240      1
    2     1     3     4     1   -120.05585        4.757      1
    2     1     9     4     1   -164.01558        6.278      1
    2     1     9    10     1    -48.00629       13.728      1
    2     3     1     9     1     80.03383        6.289      1
    2     3     4     5     1      9.06187        8.604      1
    2     3     4     9     1    -61.18834        7.003      1
    2     4     5     6     1    126.08662       25.102      1
    2     4     9    10     1     67.49787       13.511      1
    3     1     2     4     1    107.94381        4.752      1
    3     1     9     4     1   -116.93915        5.504      1
    3     1     9    10     1     -0.00684       12.288      1
    3     2     1     9     1   -119.97958        6.237      1
    3     2     4     5     1   -171.94206        7.847      1
    3     2     4     9     1    124.07792        6.258      1
    3     4     5     6     1    130.57545       23.944      1
    3     4     9    10     1     19.68917       12.124      1
    4     2     1     9     1    167.96814        4.800      1
    4     3     1     9     1    140.94230        4.013      1
    4     5     6     7     1    120.75203       27.800      1
    4     5     6     8     1    119.60830       28.870      1
    4     9    10    11     1    163.03503       27.024      1
    4     9    10    17     1     66.69770       25.454      1
    5     4     9    10     1    -40.53262       12.167      1
    5     6     7     8     1   -178.49834       22.245      1
    5     6     8     7     1      1.14233       14.379      1
    6     5     4     9     1   -146.00036       24.202      1
    9    10    11    12     1    -48.19112       21.840      1
    9    10    11    13     1    119.10286       31.535      1
    9    10    11    17     1     62.99582       22.079      1
    9    10    17    11     1    -27.13316       18.402      1
   10    11    13    14     1    -71.10669       28.310      1
   10    17    11    12     1   -123.28900        7.045      1
   10    17    11    13     1     38.76715       17.085      1
   11    13    14    15     1     94.98598       26.815      1
   11    13    14    16     1     94.37587       25.626      1
   12    11    10    17     1     63.09601       10.040      1
   12    11    13    14     1     79.79532       29.582      1
   13    11    10    17     1   -125.70155       22.421      1
   13    14    15    16     1   -179.92335       15.019      1
   13    14    16    15     1     -0.01332        9.298      1
   14    13    11    17     1    -31.41651       23.006      1
