1TPCN05425
13
    1res  C1    1    0.532   0.048   0.140
    1res  C2    2    0.336  -0.046   0.251
    1res  C3    3    0.301  -0.269   0.063
    1res  C4    4    0.484  -0.067  -0.150
    1res  C5    5    0.167  -0.022  -0.264
    1res  C6    6   -0.023  -0.182  -0.156
    1res  C7    7   -0.156   0.104  -0.228
    1res  C8    8   -0.279  -0.063   0.034
    1res  C9    9   -0.598   0.105  -0.007
    1res  C10   10   -0.448   0.011   0.222
    1res  C11   11   -0.070   0.042   0.192
    1res  C12   12   -0.035   0.237  -0.010
    1res  C13   13    0.326   0.172  -0.075
  10.00000  10.00000  10.00000
