1TPCN04844
28
    1res  C1    1    0.789  -0.335  -0.070
    1res  C2    2    0.993  -0.149   0.033
    1res  C3    3    0.898  -0.049   0.173
    1res  C4    4    0.972   0.202   0.205
    1res  C5    5    0.652   0.040   0.302
    1res  C6    6    0.628   0.149   0.046
    1res  C7    7    0.558  -0.037  -0.175
    1res  C8    8    0.383  -0.003   0.064
    1res  C9    9    0.220   0.170  -0.217
    1res  C10   10    0.117  -0.105  -0.103
    1res  C11   11   -0.095  -0.002  -0.013
    1res  C12   12   -0.336  -0.220   0.012
    1res  C13   13   -0.579  -0.211   0.010
    1res  C14   14   -0.831  -0.239  -0.148
    1res  C15   15   -0.698  -0.324  -0.388
    1res  C16   16   -0.884  -0.533  -0.175
    1res  C17   17   -1.021  -0.410  -0.004
    1res  C18   18   -0.820  -0.321   0.130
    1res  C19   19   -0.532  -0.055  -0.177
    1res  C20   20   -0.397   0.056  -0.031
    1res  C21   21   -0.511   0.218   0.028
    1res  C22   22   -0.696   0.325  -0.117
    1res  C23   23   -0.581   0.512   0.044
    1res  C24   24   -0.574   0.457   0.264
    1res  C25   25   -0.412   0.244   0.251
    1res  C26   26   -0.086   0.253   0.029
    1res  C27   27   -0.075   0.244  -0.232
    1res  C28   28    0.256   0.209   0.140
  10.00000  10.00000  10.00000
