[ moleculetype ]
; name        nrexcl
res           1

[ atoms ]
;    nr  type  resnr resid  atom  cgnr     charge       mass
      1 TN2a      1 res   C1        1      0.000     36.000
      2 TC5       1 res   C2        2      0.000     36.000
      3 TC5       1 res   C3        3      0.000     36.000
      4 TC5       1 res   C4        4      0.000     36.000
      5 TN6d      1 res   C5        5      0.000     36.000
      6 TC3       1 res   C6        6      0.000     36.000
      7 TC3       1 res   C7        7      0.000     36.000
      8 SP2       1 res   C8        8      0.000     54.000
      9 TC3       1 res   C9        9      0.000     36.000
     10 TC3       1 res   C10      10      0.000     36.000
     11 TN1       1 res   C11      11      0.000     36.000
     12 TC3       1 res   C12      12      0.000     36.000
     13 SP1       1 res   C13      13      0.000     54.000

[ constraints ]
;  ai    aj   funct      b0(nm)
   10    11     1      0.21798
    2     3     1      0.25816
   11    12     1      0.22886
    4     5     1      0.21933
    6     9     1      0.24617
    7    12     1      0.29348
    7     9     1      0.24372
    9    11     1      0.28106
    3     4     1      0.24860
    7     8     1      0.27898
    5     6     1      0.21924
   12    13     1      0.29275
    6     7     1      0.26897
    6    10     1      0.27134
    2     4     1      0.25602
    4     6     1      0.19099

[ bonds ]
;  ai    aj   funct      b0(nm)          k(kJ/mol/nm^2)
    1     2     1      0.28943           2257.6

[ angles ]
;  ai    aj    ak  funct     th0(deg)        k(kJ/mol/rad^2)
    1     2     3     1    143.00286            30.01
    1     2     4     1     88.47066            28.57
    2     3     4     1     60.65533          6988.42
    2     4     3     1     61.52123          7398.79
    2     4     5     1    105.18460          1317.33
    2     4     6     1    167.73512          1107.83
    3     2     4     1     57.82341          9471.42
    3     4     5     1    163.74567           619.38
    3     4     6     1    128.09191          1641.65
    4     5     6     1     51.64322          3716.94
    4     6     5     1     64.20638          3507.22
    4     6     7     1    127.99367           822.67
    4     6     9     1    102.38315           728.27
    4     6    10     1    105.02957          1779.81
    5     4     6     1     64.15042          4633.49
    5     6     7     1     91.75851          1157.24
    5     6     9     1    128.53184           351.36
    5     6    10     1    141.94336           340.66
    6     7     8     1     86.82095          2013.28
    6     7     9     1     57.13156          4708.82
    6     7    12     1     91.12840          3312.10
    6     9     7     1     66.60597          4350.99
    6     9    11     1     53.73113          3514.30
    6    10    11     1     57.57582          3967.76
    7     6     9     1     56.26250          6409.82
    7     6    10     1    119.20445          3077.45
    7     9    11     1     68.29938          3894.62
    7    12    11     1     67.78763          2839.40
    7    12    13     1     61.13942          1969.39
    8     7     9     1    140.08851          1387.17
    8     7    12     1    140.10958           378.33
    9     6    10     1     88.60220          2331.93
    9     7    12     1     63.72461          2623.73
    9    11    10     1     92.10161          1706.58
    9    11    12     1     67.53178          2767.26
   10    11    12     1    135.34828           980.41
   11    12    13     1     94.01779          1008.31

[ dihedrals ]
;  ai    aj    ak    al  funct   phi0(deg)        k(kJ/mol)   mult
    1     2     3     4     1    176.17342       27.939      1
    1     2     4     3     1     -3.13779       20.198      1
    1     2     4     5     1   -173.30909       23.436      1
    1     2     4     6     1   -155.46193       30.525      1
    2     3     4     5     1   -154.90828       25.203      1
    2     3     4     6     1     -5.99317       12.250      1
    2     4     5     6     1     -3.16760       10.057      1
    2     4     6     5     1    168.16548       28.885      1
    2     4     6     7     1   -119.30712       30.415      1
    2     4     6     9     1    -65.44420       27.621      1
    2     4     6    10     1     26.07403       28.771      1
    3     2     4     5     1      6.86856       11.485      1
    3     2     4     6     1     14.54742       27.898      1
    3     4     5     6     1    -25.48336       25.363      1
    3     4     6     5     1      9.72365       13.634      1
    3     4     6     7     1     82.98222       14.381      1
    3     4     6     9     1    139.87362       15.072      1
    3     4     6    10     1   -128.98575       15.774      1
    4     5     6     7     1     47.98499        6.323      1
    4     5     6     9     1     93.09025        8.519      1
    4     5     6    10     1   -101.05165       10.059      1
    4     6     7     8     1     97.90089        9.316      1
    4     6     7     9     1    -99.86681        7.786      1
    4     6     7    12     1    -43.95720        9.261      1
    4     6     9     7     1     52.04849        6.260      1
    4     6     9    11     1    -27.00557        5.546      1
    4     6    10    11     1     10.89533        9.911      1
    5     4     6     7     1   -109.00904        8.532      1
    5     4     6     9     1    -52.81003        8.571      1
    5     4     6    10     1     40.87150       10.057      1
    5     6     7     8     1    154.96374       10.047      1
    5     6     7     9     1    -41.12849        9.992      1
    5     6     7    12     1     15.88527       10.702      1
    5     6     9     7     1    119.94705        7.755      1
    5     6     9    11     1     39.05304        8.498      1
    5     6    10    11     1    -55.13023       10.024      1
    6     7     9    11     1   -121.04837        3.969      1
    6     7    12    11     1   -157.25035        5.491      1
    6     7    12    13     1    -47.76050        9.261      1
    6     9     7     8     1   -153.79937       13.551      1
    6     9     7    12     1     69.96970        4.770      1
    6     9    11    10     1    112.99612        5.500      1
    6     9    11    12     1    -26.74481        7.013      1
    6    10    11     9     1   -127.95861        4.693      1
    6    10    11    12     1    -68.14177        9.222      1
    7     6     9    11     1    100.04120        4.725      1
    7     6    10    11     1    164.94982        5.578      1
    7     9     6    10     1    -52.08170        4.767      1
    7     9    11    10     1     36.74857        5.523      1
    7     9    11    12     1   -102.01577        6.235      1
    7    12    11     9     1    125.93762        3.192      1
    7    12    11    10     1     57.80336        9.237      1
    8     7     6     9     1     17.93279        9.268      1
    8     7     6    10     1    -47.59415        9.269      1
    8     7     9    11     1    -94.84732       12.890      1
    8     7    12    11     1    117.68546       10.651      1
    8     7    12    13     1   -135.01558       11.475      1
    9     6     7    12     1   -122.95975        5.500      1
    9     6    10    11     1    114.04736        4.787      1
    9     7     6    10     1    113.98151        6.274      1
    9     7    12    11     1   -104.97092        5.459      1
    9     7    12    13     1      4.87414        9.981      1
    9    11    12    13     1     69.92999        6.261      1
   10     6     7    12     1    171.00891        7.077      1
   10     6     9    11     1   -132.04305        3.233      1
   10    11    12    13     1      0.78631        8.563      1
   11     9     7    12     1    128.01631        3.232      1
