1TPCN00121
9
    1res  C1    1   -0.473  -0.076  -0.097
    1res  C2    2   -0.493   0.105   0.100
    1res  C3    3   -0.312  -0.083   0.186
    1res  C4    4   -0.092  -0.010   0.159
    1res  C5    5    0.252  -0.017   0.070
    1res  C6    6    0.534  -0.023  -0.111
    1res  C7    7    0.767  -0.021   0.085
    1res  C8    8    0.747  -0.006  -0.163
    1res  C9    9    0.856   0.012  -0.339
  10.00000  10.00000  10.00000
