1TPCN05881
27
    1res  C1    1   -0.964   0.293   0.110
    1res  C2    2   -0.854   0.107  -0.032
    1res  C3    3   -0.718  -0.054   0.112
    1res  C4    4   -0.554  -0.034   0.346
    1res  C5    5   -0.565  -0.241  -0.012
    1res  C6    6   -0.254  -0.313  -0.103
    1res  C7    7   -0.134  -0.263   0.191
    1res  C8    8   -0.096  -0.061  -0.025
    1res  C9    9    0.200  -0.223  -0.038
    1res  C10   10    0.267  -0.057   0.146
    1res  C11   11    0.398   0.076  -0.025
    1res  C12   12    0.638   0.256  -0.068
    1res  C13   13    0.792   0.442  -0.296
    1res  C14   14    0.668   0.500   0.008
    1res  C15   15    0.721   0.355   0.213
    1res  C16   16    0.659   0.163   0.142
    1res  C17   17    0.767  -0.111   0.078
    1res  C18   18    0.884  -0.204  -0.231
    1res  C19   19    1.041  -0.092   0.010
    1res  C20   20    1.049  -0.002   0.209
    1res  C21   21    0.811  -0.106   0.309
    1res  C22   22    0.379  -0.044  -0.237
    1res  C23   23    0.014  -0.120  -0.280
    1res  C24   24   -0.419  -0.059  -0.173
    1res  C25   25   -0.891  -0.005  -0.246
    1res  C26   26   -1.065   0.191  -0.288
    1res  C27   27   -1.057   0.330  -0.127
  10.00000  10.00000  10.00000
