[ moleculetype ]
; name        nrexcl
res           1

[ atoms ]
;    nr  type  resnr resid  atom  cgnr     charge       mass
      1 TC3       1 res   C1        1      0.000     36.000
      2 TC3       1 res   C2        2      0.000     36.000
      3 TC3       1 res   C3        3      0.000     36.000
      4 TC5       1 res   C4        4      0.000     36.000
      5 N4a       1 res   C5        5      0.000     72.000
      6 TC5       1 res   C6        6      0.000     36.000
      7 TN6d      1 res   C7        7      0.000     36.000
      8 TC5       1 res   C8        8      0.000     36.000
      9 TC5       1 res   C9        9      0.000     36.000
     10 TC5       1 res   C10      10      0.000     36.000
     11 TC3       1 res   C11      11      0.000     36.000
     12 TN6d      1 res   C12      12      0.000     36.000
     13 SN5a      1 res   C13      13      0.000     54.000

[ constraints ]
;  ai    aj   funct      b0(nm)
    1     2     1      0.25628
    2     3     1      0.27117
   11    12     1      0.23826
    4     5     1      0.36929
    6     8     1      0.18449
    3     4     1      0.29114
    7     8     1      0.21733
    6    11     1      0.25626
    8    10     1      0.25013
    9    10     1      0.29153
    6     7     1      0.21714
    8     9     1      0.25032
    2     4     1      0.26727
    3    12     1      0.24235
    4     6     1      0.24243
    4    12     1      0.26047

[ bonds ]
;  ai    aj   funct      b0(nm)          k(kJ/mol/nm^2)
   12    13     1      0.30541          12677.0

[ angles ]
;  ai    aj    ak  funct     th0(deg)        k(kJ/mol/rad^2)
    1     2     3     1    151.12845           443.46
    1     2     4     1     95.21002          1053.62
    2     3     4     1     56.62450          5068.43
    2     3    12     1     76.32293          3211.19
    2     4     3     1     57.91931          3637.85
    2     4     5     1     79.90788           252.23
    2     4     6     1    138.68046          1282.92
    2     4    12     1     74.12979          3314.46
    3     2     4     1     65.45617          5215.34
    3     4     5     1     76.94687          1416.40
    3     4     6     1     80.93159          1437.73
    3     4    12     1     51.75934          3815.60
    3    12     4     1     70.66187          3383.13
    3    12    11     1    123.22362           297.95
    3    12    13     1    103.22451           212.85
    4     3    12     1     57.57880          3781.36
    4     6     7     1     93.97989           570.69
    4     6     8     1    148.35994           462.88
    4     6    11     1     78.36764          2175.80
    4    12    11     1     78.30743          1227.46
    4    12    13     1    150.10453           242.00
    5     4     6     1     91.06496           434.14
    5     4    12     1    128.38137           943.40
    6     4    12     1     81.09466          1047.92
    6     7     8     1     50.25682          5291.46
    6     8     7     1     64.81393          4481.31
    6     8     9     1    160.91614          1989.87
    6     8    10     1    126.98828          2138.53
    6    11    12     1     82.83262           544.06
    7     6     8     1     64.92918          3391.64
    7     6    11     1    168.78476           250.13
    7     8     9     1     96.66411          2196.33
    7     8    10     1    166.86235          1385.65
    8     6    11     1    118.77968          1509.78
    8     9    10     1     54.34135          6971.19
    8    10     9     1     54.40028          7325.50
    9     8    10     1     71.25835          5991.14
   11    12    13     1    124.81861           191.85

[ dihedrals ]
;  ai    aj    ak    al  funct   phi0(deg)        k(kJ/mol)   mult
    1     2     3     4     1    133.85593       20.318      1
    1     2     3    12     1   -165.98240       19.024      1
    1     2     4     3     1    -20.18010       12.205      1
    1     2     4     5     1     58.87651       11.450      1
    1     2     4     6     1    -21.14246       11.507      1
    1     2     4    12     1    -75.99961       10.799      1
    2     3     4     5     1     96.15656       10.803      1
    2     3     4     6     1     -0.15518        7.792      1
    2     3     4    12     1    -85.01848        4.024      1
    2     3    12     4     1    120.98384        3.956      1
    2     3    12    11     1     60.99915       10.026      1
    2     3    12    13     1    -90.06220       10.747      1
    2     4     3    12     1     85.01848        4.024      1
    2     4     6     7     1    -86.63063       14.324      1
    2     4     6     8     1    -44.19487       13.640      1
    2     4     6    11     1     84.97409        9.990      1
    2     4    12     3     1   -118.97867        4.007      1
    2     4    12    11     1     13.94547       10.799      1
    2     4    12    13     1    155.72896       19.071      1
    3     2     4     5     1    -97.90408        7.705      1
    3     2     4     6     1    179.77904       10.767      1
    3     2     4    12     1    125.06077        3.980      1
    3     4     6     7     1    -85.06494       14.340      1
    3     4     6     8     1    -41.93513       13.622      1
    3     4     6    11     1     85.78459        9.246      1
    3     4    12    11     1    -48.91720       11.526      1
    3     4    12    13     1     92.83157       19.683      1
    3    12     4     5     1   -178.05417       12.243      1
    3    12     4     6     1     95.00451        7.036      1
    3    12    11     6     1   -167.18109       12.913      1
    4     2     3    12     1   -120.92091        3.982      1
    4     3    12    11     1    120.92561       10.018      1
    4     3    12    13     1    -31.09287       10.062      1
    4     6     7     8     1    -23.86518        9.302      1
    4     6     8     7     1    129.24816       15.632      1
    4     6     8     9     1    128.27112       23.225      1
    4     6     8    10     1    -51.79209       17.758      1
    4     6    11    12     1   -132.99540        7.067      1
    4    12    11     6     1    137.90501        7.764      1
    5     4     3    12     1      2.09273       10.775      1
    5     4     6     7     1   -161.46128       14.929      1
    5     4     6     8     1   -117.13289       15.707      1
    5     4     6    11     1      9.93000       10.756      1
    5     4    12    11     1    -49.03536       10.110      1
    5     4    12    13     1     93.35775       19.015      1
    6     4     3    12     1    -94.92044        7.083      1
    6     4    12    11     1   -133.96009        7.844      1
    6     4    12    13     1      6.74773       17.059      1
    6     7     8     9     1     -1.26214        8.561      1
    6     7     8    10     1      0.27921       28.624      1
    6     8     9    10     1      4.11811       22.883      1
    6     8    10     9     1     -1.20121       11.509      1
    6    11    12    13     1    -23.12968       10.072      1
    7     6     4    12     1    -33.96906       15.045      1
    7     6     8     9     1   -179.95295       20.835      1
    7     6     8    10     1      1.04669       12.939      1
    7     6    11    12     1   -108.58019       24.346      1
    7     8     6    11     1     11.74140       13.634      1
    7     8     9    10     1      0.25638       10.739      1
    7     8    10     9     1    177.68439       28.303      1
    8     6     4    12     1      9.96593       13.651      1
    8     6    11    12     1     19.68333       12.183      1
    8     7     6    11     1    -50.60500       24.661      1
    9     8     6    11     1      7.95709       23.711      1
   10     8     6    11     1   -168.98525       15.752      1
   11     6     4    12     1    138.89020        8.530      1
