[ moleculetype ]
; name        nrexcl
res           1

[ atoms ]
;    nr  type  resnr resid  atom  cgnr     charge       mass
      1 TN4a      1 res   C1        1      0.000     36.000
      2 TC5       1 res   C2        2      0.000     36.000
      3 TC5       1 res   C3        3      0.000     36.000
      4 TC5       1 res   C4        4      0.000     36.000

[ constraints ]
;  ai    aj   funct      b0(nm)
    1     2     1      0.23990
    3     4     1      0.28818
    2     3     1      0.25624
    2     4     1      0.29827

[ bonds ]
;  ai    aj   funct      b0(nm)          k(kJ/mol/nm^2)

[ angles ]
;  ai    aj    ak  funct     th0(deg)        k(kJ/mol/rad^2)
    1     2     3     1    146.56226           924.73
    1     2     4     1     85.28032          1392.10
    2     3     4     1     66.14420          6602.78
    2     4     3     1     51.78134         10711.09
    3     2     4     1     62.07442          8897.58

[ dihedrals ]
;  ai    aj    ak    al  funct   phi0(deg)        k(kJ/mol)   mult
    1     2     3     4     1    177.81048       20.407      1
    1     2     4     3     1     -0.22475       12.256      1
