Generated with MDTraj, t= 0.0
 62
    1UNL     C1    1  -0.203  -0.306  -0.159
    1UNL     C2    2  -0.063  -0.275  -0.108
    1UNL     C3    3  -0.008  -0.377  -0.004
    1UNL     C4    4   0.132  -0.326   0.044
    1UNL     O1    5   0.184  -0.403   0.151
    1UNL     O2    6   0.214  -0.322  -0.076
    1UNL     C5    7   0.155  -0.222  -0.160
    1UNL     O3    8   0.033  -0.273  -0.217
    1UNL     C6    9   0.108  -0.108  -0.061
    1UNL     C7   10   0.160   0.034  -0.084
    1UNL     O4   11   0.300   0.040  -0.069
    1UNL     C8   12   0.339   0.167  -0.036
    1UNL     O5   13   0.262   0.258  -0.017
    1UNL     C9   14   0.485   0.189  -0.024
    1UNL    C10   15   0.574   0.083  -0.038
    1UNL    C11   16   0.709   0.105  -0.027
    1UNL    C12   17   0.757   0.232  -0.002
    1UNL    C13   18   0.670   0.337   0.012
    1UNL    C14   19   0.534   0.316   0.001
    1UNL    C15   20   0.120  -0.172   0.081
    1UNL    C16   21  -0.024  -0.122   0.108
    1UNL    C17   22  -0.049  -0.128  -0.046
    1UNL     O6   23  -0.124  -0.025  -0.113
    1UNL    C18   24  -0.219   0.044  -0.033
    1UNL     O7   25  -0.284   0.151  -0.103
    1UNL    C19   26  -0.369   0.233  -0.021
    1UNL    C20   27  -0.289   0.317   0.080
    1UNL     O8   28  -0.369   0.412   0.145
    1UNL    C21   29  -0.482   0.148   0.046
    1UNL     O9   30  -0.564   0.221   0.135
    1UNL    C22   31  -0.423   0.025   0.118
    1UNL    O10   32  -0.527  -0.062   0.157
    1UNL    C23   33  -0.327  -0.051   0.023
    1UNL    O11   34  -0.401  -0.103  -0.085
    1UNL     H1   35  -0.275  -0.310  -0.077
    1UNL     H2   36  -0.234  -0.227  -0.227
    1UNL     H3   37  -0.204  -0.400  -0.212
    1UNL     H4   38  -0.076  -0.391   0.080
    1UNL     H5   39   0.006  -0.474  -0.053
    1UNL     H6   40   0.125  -0.396   0.229
    1UNL     H7   41   0.224  -0.188  -0.238
    1UNL     H8   42   0.115   0.104  -0.012
    1UNL     H9   43   0.135   0.069  -0.184
    1UNL    H10   44   0.534  -0.015  -0.058
    1UNL    H11   45   0.778   0.022  -0.039
    1UNL    H12   46   0.863   0.248   0.006
    1UNL    H13   47   0.707   0.436   0.032
    1UNL    H14   48   0.464   0.397   0.012
    1UNL    H15   49   0.202  -0.131   0.143
    1UNL    H16   50  -0.085  -0.192   0.167
    1UNL    H17   51  -0.028  -0.021   0.151
    1UNL    H18   52  -0.163   0.092   0.048
    1UNL    H19   53  -0.417   0.304  -0.090
    1UNL    H20   54  -0.208   0.370   0.030
    1UNL    H21   55  -0.244   0.253   0.157
    1UNL    H22   56  -0.456   0.370   0.163
    1UNL    H23   57  -0.548   0.111  -0.034
    1UNL    H24   58  -0.621   0.159   0.183
    1UNL    H25   59  -0.371   0.057   0.209
    1UNL    H26   60  -0.553  -0.114   0.078
    1UNL    H27   61  -0.283  -0.136   0.075
    1UNL    H28   62  -0.401  -0.035  -0.156
   0.00000   0.00000   0.00000   0.00000   0.00000   0.00000   0.00000   0.00000   0.00000
Generated with MDTraj, t= 1.0
 62
    1UNL     C1    1  -0.196  -0.305  -0.172
    1UNL     C2    2  -0.060  -0.274  -0.113
    1UNL     C3    3  -0.003  -0.381  -0.010
    1UNL     C4    4   0.135  -0.323   0.053
    1UNL     O1    5   0.186  -0.417   0.146
    1UNL     O2    6   0.217  -0.311  -0.068
    1UNL     C5    7   0.158  -0.208  -0.145
    1UNL     O3    8   0.044  -0.260  -0.212
    1UNL     C6    9   0.107  -0.100  -0.046
    1UNL     C7   10   0.164   0.032  -0.072
    1UNL     O4   11   0.307   0.034  -0.074
    1UNL     C8   12   0.351   0.159  -0.023
    1UNL     O5   13   0.276   0.244   0.022
    1UNL     C9   14   0.501   0.189  -0.031
    1UNL    C10   15   0.599   0.091  -0.075
    1UNL    C11   16   0.730   0.120  -0.061
    1UNL    C12   17   0.774   0.243  -0.015
    1UNL    C13   18   0.681   0.343   0.023
    1UNL    C14   19   0.544   0.311   0.017
    1UNL    C15   20   0.108  -0.175   0.097
    1UNL    C16   21  -0.045  -0.138   0.113
    1UNL    C17   22  -0.052  -0.130  -0.049
    1UNL     O6   23  -0.138  -0.030  -0.115
    1UNL    C18   24  -0.236   0.034  -0.041
    1UNL     O7   25  -0.299   0.145  -0.110
    1UNL    C19   26  -0.385   0.230  -0.029
    1UNL    C20   27  -0.296   0.322   0.064
    1UNL     O8   28  -0.363   0.420   0.123
    1UNL    C21   29  -0.493   0.149   0.051
    1UNL     O9   30  -0.560   0.223   0.153
    1UNL    C22   31  -0.432   0.019   0.114
    1UNL    O10   32  -0.535  -0.060   0.167
    1UNL    C23   33  -0.346  -0.058   0.016
    1UNL    O11   34  -0.428  -0.103  -0.092
    1UNL     H1   35  -0.210  -0.237  -0.259
    1UNL     H2   36  -0.215  -0.408  -0.208
    1UNL     H3   37  -0.272  -0.273  -0.108
    1UNL     H4   38  -0.069  -0.409   0.063
    1UNL     H5   39   0.025  -0.467  -0.079
    1UNL     H6   40   0.148  -0.396   0.239
    1UNL     H7   41   0.231  -0.169  -0.218
    1UNL     H8   42   0.134   0.103   0.004
    1UNL     H9   43   0.132   0.075  -0.168
    1UNL    H10   44   0.571  -0.011  -0.106
    1UNL    H11   45   0.798   0.038  -0.067
    1UNL    H12   46   0.880   0.253  -0.007
    1UNL    H13   47   0.720   0.434   0.060
    1UNL    H14   48   0.469   0.380   0.052
    1UNL    H15   49   0.186  -0.113   0.147
    1UNL    H16   50  -0.101  -0.217   0.154
    1UNL    H17   51  -0.048  -0.036   0.157
    1UNL    H18   52  -0.177   0.073   0.049
    1UNL    H19   53  -0.432   0.304  -0.093
    1UNL    H20   54  -0.220   0.374   0.008
    1UNL    H21   55  -0.241   0.272   0.142
    1UNL    H22   56  -0.461   0.409   0.148
    1UNL    H23   57  -0.565   0.115  -0.019
    1UNL    H24   58  -0.558   0.177   0.242
    1UNL    H25   59  -0.381   0.064   0.204
    1UNL    H26   60  -0.601  -0.104   0.106
    1UNL    H27   61  -0.291  -0.141   0.059
    1UNL    H28   62  -0.440  -0.018  -0.147
   0.00000   0.00000   0.00000   0.00000   0.00000   0.00000   0.00000   0.00000   0.00000
Generated with MDTraj, t= 2.0
 62
    1UNL     C1    1  -0.183  -0.308  -0.189
    1UNL     C2    2  -0.053  -0.274  -0.120
    1UNL     C3    3  -0.011  -0.379  -0.018
    1UNL     C4    4   0.128  -0.324   0.043
    1UNL     O1    5   0.161  -0.402   0.162
    1UNL     O2    6   0.214  -0.314  -0.066
    1UNL     C5    7   0.168  -0.208  -0.155
    1UNL     O3    8   0.060  -0.269  -0.221
    1UNL     C6    9   0.105  -0.099  -0.054
    1UNL     C7   10   0.155   0.037  -0.063
    1UNL     O4   11   0.301   0.048  -0.052
    1UNL     C8   12   0.345   0.168   0.003
    1UNL     O5   13   0.270   0.252   0.051
    1UNL     C9   14   0.494   0.186  -0.008
    1UNL    C10   15   0.570   0.098  -0.084
    1UNL    C11   16   0.701   0.115  -0.101
    1UNL    C12   17   0.758   0.231  -0.055
    1UNL    C13   18   0.690   0.323   0.023
    1UNL    C14   19   0.554   0.300   0.052
    1UNL    C15   20   0.111  -0.170   0.089
    1UNL    C16   21  -0.036  -0.131   0.098
    1UNL    C17   22  -0.050  -0.128  -0.056
    1UNL     O6   23  -0.135  -0.030  -0.114
    1UNL    C18   24  -0.225   0.038  -0.037
    1UNL     O7   25  -0.288   0.143  -0.107
    1UNL    C19   26  -0.376   0.221  -0.025
    1UNL    C20   27  -0.294   0.323   0.061
    1UNL     O8   28  -0.370   0.433   0.108
    1UNL    C21   29  -0.490   0.141   0.053
    1UNL     O9   30  -0.569   0.223   0.141
    1UNL    C22   31  -0.431   0.017   0.120
    1UNL    O10   32  -0.526  -0.067   0.167
    1UNL    C23   33  -0.328  -0.056   0.031
    1UNL    O11   34  -0.408  -0.106  -0.077
    1UNL     H1   35  -0.200  -0.419  -0.190
    1UNL     H2   36  -0.268  -0.276  -0.130
    1UNL     H3   37  -0.191  -0.274  -0.289
    1UNL     H4   38  -0.081  -0.393   0.058
    1UNL     H5   39   0.016  -0.476  -0.069
    1UNL     H6   40   0.117  -0.348   0.241
    1UNL     H7   41   0.246  -0.160  -0.215
    1UNL     H8   42   0.113   0.104   0.010
    1UNL     H9   43   0.131   0.082  -0.163
    1UNL    H10   44   0.529   0.004  -0.112
    1UNL    H11   45   0.764   0.035  -0.155
    1UNL    H12   46   0.865   0.243  -0.081
    1UNL    H13   47   0.736   0.425   0.049
    1UNL    H14   48   0.486   0.363   0.108
    1UNL    H15   49   0.172  -0.115   0.166
    1UNL    H16   50  -0.091  -0.195   0.161
    1UNL    H17   51  -0.042  -0.030   0.146
    1UNL    H18   52  -0.162   0.083   0.051
    1UNL    H19   53  -0.418   0.288  -0.098
    1UNL    H20   54  -0.210   0.360   0.009
    1UNL    H21   55  -0.249   0.258   0.135
    1UNL    H22   56  -0.444   0.383   0.149
    1UNL    H23   57  -0.552   0.104  -0.023
    1UNL    H24   58  -0.558   0.199   0.238
    1UNL    H25   59  -0.382   0.059   0.215
    1UNL    H26   60  -0.566  -0.099   0.082
    1UNL    H27   61  -0.288  -0.134   0.093
    1UNL    H28   62  -0.422  -0.044  -0.145
   0.00000   0.00000   0.00000   0.00000   0.00000   0.00000   0.00000   0.00000   0.00000
Generated with MDTraj, t= 3.0
 62
    1UNL     C1    1  -0.187  -0.305  -0.178
    1UNL     C2    2  -0.046  -0.271  -0.114
    1UNL     C3    3  -0.002  -0.370  -0.015
    1UNL     C4    4   0.134  -0.322   0.052
    1UNL     O1    5   0.180  -0.405   0.150
    1UNL     O2    6   0.222  -0.308  -0.065
    1UNL     C5    7   0.172  -0.197  -0.143
    1UNL     O3    8   0.059  -0.254  -0.215
    1UNL     C6    9   0.107  -0.105  -0.038
    1UNL     C7   10   0.143   0.039  -0.035
    1UNL     O4   11   0.282   0.056  -0.063
    1UNL     C8   12   0.334   0.157   0.004
    1UNL     O5   13   0.266   0.231   0.073
    1UNL     C9   14   0.478   0.179  -0.020
    1UNL    C10   15   0.546   0.101  -0.105
    1UNL    C11   16   0.680   0.117  -0.126
    1UNL    C12   17   0.744   0.218  -0.055
    1UNL    C13   18   0.676   0.305   0.029
    1UNL    C14   19   0.542   0.278   0.054
    1UNL    C15   20   0.113  -0.177   0.098
    1UNL    C16   21  -0.037  -0.129   0.110
    1UNL    C17   22  -0.049  -0.129  -0.042
    1UNL     O6   23  -0.118  -0.019  -0.114
    1UNL    C18   24  -0.217   0.047  -0.044
    1UNL     O7   25  -0.281   0.154  -0.119
    1UNL    C19   26  -0.372   0.229  -0.042
    1UNL    C20   27  -0.300   0.318   0.059
    1UNL     O8   28  -0.386   0.416   0.128
    1UNL    C21   29  -0.485   0.144   0.034
    1UNL     O9   30  -0.567   0.227   0.123
    1UNL    C22   31  -0.415   0.028   0.111
    1UNL    O10   32  -0.499  -0.057   0.176
    1UNL    C23   33  -0.314  -0.047   0.022
    1UNL    O11   34  -0.394  -0.114  -0.080
    1UNL     H1   35  -0.260  -0.242  -0.136
    1UNL     H2   36  -0.180  -0.268  -0.279
    1UNL     H3   37  -0.222  -0.410  -0.186
    1UNL     H4   38  -0.081  -0.393   0.067
    1UNL     H5   39   0.009  -0.460  -0.078
    1UNL     H6   40   0.097  -0.449   0.200
    1UNL     H7   41   0.248  -0.156  -0.211
    1UNL     H8   42   0.121   0.087   0.060
    1UNL     H9   43   0.080   0.084  -0.118
    1UNL    H10   44   0.500   0.015  -0.156
    1UNL    H11   45   0.736   0.050  -0.177
    1UNL    H12   46   0.842   0.239  -0.082
    1UNL    H13   47   0.717   0.391   0.062
    1UNL    H14   48   0.480   0.349   0.108
    1UNL    H15   49   0.204  -0.138   0.153
    1UNL    H16   50  -0.112  -0.189   0.157
    1UNL    H17   51  -0.063  -0.036   0.166
    1UNL    H18   52  -0.149   0.111   0.030
    1UNL    H19   53  -0.423   0.302  -0.105
    1UNL    H20   54  -0.236   0.376  -0.003
    1UNL    H21   55  -0.232   0.267   0.127
    1UNL    H22   56  -0.475   0.371   0.135
    1UNL    H23   57  -0.549   0.086  -0.024
    1UNL    H24   58  -0.595   0.173   0.199
    1UNL    H25   59  -0.361   0.065   0.207
    1UNL    H26   60  -0.531  -0.110   0.100
    1UNL    H27   61  -0.268  -0.128   0.077
    1UNL    H28   62  -0.400  -0.061  -0.170
   0.00000   0.00000   0.00000   0.00000   0.00000   0.00000   0.00000   0.00000   0.00000
Generated with MDTraj, t= 4.0
 62
    1UNL     C1    1  -0.181  -0.317  -0.185
    1UNL     C2    2  -0.050  -0.278  -0.120
    1UNL     C3    3   0.006  -0.387  -0.014
    1UNL     C4    4   0.137  -0.325   0.049
    1UNL     O1    5   0.196  -0.404   0.157
    1UNL     O2    6   0.227  -0.305  -0.057
    1UNL     C5    7   0.169  -0.202  -0.140
    1UNL     O3    8   0.057  -0.258  -0.213
    1UNL     C6    9   0.104  -0.102  -0.041
    1UNL     C7   10   0.139   0.045  -0.048
    1UNL     O4   11   0.274   0.082  -0.088
    1UNL     C8   12   0.338   0.160   0.001
    1UNL     O5   13   0.278   0.209   0.093
    1UNL     C9   14   0.484   0.188  -0.020
    1UNL    C10   15   0.550   0.119  -0.125
    1UNL    C11   16   0.691   0.134  -0.134
    1UNL    C12   17   0.758   0.220  -0.053
    1UNL    C13   18   0.694   0.298   0.040
    1UNL    C14   19   0.556   0.284   0.051
    1UNL    C15   20   0.105  -0.175   0.096
    1UNL    C16   21  -0.043  -0.149   0.108
    1UNL    C17   22  -0.054  -0.139  -0.042
    1UNL     O6   23  -0.133  -0.040  -0.108
    1UNL    C18   24  -0.219   0.035  -0.027
    1UNL     O7   25  -0.266   0.150  -0.098
    1UNL    C19   26  -0.364   0.235  -0.028
    1UNL    C20   27  -0.299   0.325   0.072
    1UNL     O8   28  -0.391   0.421   0.116
    1UNL    C21   29  -0.483   0.147   0.034
    1UNL     O9   30  -0.577   0.234   0.104
    1UNL    C22   31  -0.430   0.026   0.110
    1UNL    O10   32  -0.526  -0.046   0.177
    1UNL    C23   33  -0.338  -0.052   0.025
    1UNL    O11   34  -0.412  -0.094  -0.087
    1UNL     H1   35  -0.223  -0.248  -0.251
    1UNL     H2   36  -0.171  -0.416  -0.230
    1UNL     H3   37  -0.237  -0.331  -0.089
    1UNL     H4   38  -0.076  -0.430   0.061
    1UNL     H5   39   0.054  -0.472  -0.062
    1UNL     H6   40   0.274  -0.458   0.114
    1UNL     H7   41   0.243  -0.157  -0.207
    1UNL     H8   42   0.115   0.091   0.048
    1UNL     H9   43   0.077   0.091  -0.132
    1UNL    H10   44   0.501   0.034  -0.164
    1UNL    H11   45   0.745   0.060  -0.204
    1UNL    H12   46   0.869   0.222  -0.058
    1UNL    H13   47   0.745   0.396   0.072
    1UNL    H14   48   0.501   0.346   0.120
    1UNL    H15   49   0.168  -0.133   0.181
    1UNL    H16   50  -0.086  -0.237   0.155
    1UNL    H17   51  -0.063  -0.059   0.164
    1UNL    H18   52  -0.150   0.073   0.063
    1UNL    H19   53  -0.410   0.292  -0.111
    1UNL    H20   54  -0.213   0.384   0.037
    1UNL    H21   55  -0.253   0.272   0.158
    1UNL    H22   56  -0.480   0.386   0.136
    1UNL    H23   57  -0.548   0.118  -0.045
    1UNL    H24   58  -0.653   0.194   0.150
    1UNL    H25   59  -0.380   0.072   0.203
    1UNL    H26   60  -0.558  -0.117   0.117
    1UNL    H27   61  -0.301  -0.137   0.080
    1UNL    H28   62  -0.357  -0.057  -0.156
   0.00000   0.00000   0.00000   0.00000   0.00000   0.00000   0.00000   0.00000   0.00000
Generated with MDTraj, t= 5.0
 62
    1UNL     C1    1  -0.174  -0.333  -0.165
    1UNL     C2    2  -0.042  -0.279  -0.111
    1UNL     C3    3   0.028  -0.385  -0.013
    1UNL     C4    4   0.155  -0.319   0.050
    1UNL     O1    5   0.220  -0.389   0.152
    1UNL     O2    6   0.237  -0.294  -0.068
    1UNL     C5    7   0.172  -0.201  -0.151
    1UNL     O3    8   0.058  -0.261  -0.218
    1UNL     C6    9   0.107  -0.099  -0.045
    1UNL     C7   10   0.146   0.049  -0.077
    1UNL     O4   11   0.287   0.055  -0.088
    1UNL     C8   12   0.339   0.130   0.012
    1UNL     O5   13   0.270   0.189   0.094
    1UNL     C9   14   0.485   0.164  -0.005
    1UNL    C10   15   0.550   0.111  -0.120
    1UNL    C11   16   0.681   0.153  -0.154
    1UNL    C12   17   0.748   0.238  -0.068
    1UNL    C13   18   0.679   0.293   0.042
    1UNL    C14   19   0.550   0.255   0.074
    1UNL    C15   20   0.117  -0.167   0.096
    1UNL    C16   21  -0.038  -0.138   0.117
    1UNL    C17   22  -0.050  -0.136  -0.039
    1UNL     O6   23  -0.133  -0.032  -0.095
    1UNL    C18   24  -0.229   0.042  -0.022
    1UNL     O7   25  -0.281   0.149  -0.095
    1UNL    C19   26  -0.367   0.245  -0.020
    1UNL    C20   27  -0.292   0.323   0.081
    1UNL     O8   28  -0.365   0.427   0.123
    1UNL    C21   29  -0.495   0.163   0.027
    1UNL     O9   30  -0.585   0.240   0.116
    1UNL    C22   31  -0.452   0.037   0.107
    1UNL    O10   32  -0.570  -0.037   0.132
    1UNL    C23   33  -0.345  -0.049   0.034
    1UNL    O11   34  -0.411  -0.114  -0.079
    1UNL     H1   35  -0.166  -0.330  -0.273
    1UNL     H2   36  -0.195  -0.436  -0.141
    1UNL     H3   37  -0.252  -0.263  -0.133
    1UNL     H4   38  -0.041  -0.421   0.066
    1UNL     H5   39   0.056  -0.471  -0.079
    1UNL     H6   40   0.311  -0.353   0.176
    1UNL     H7   41   0.246  -0.157  -0.218
    1UNL     H8   42   0.123   0.111   0.007
    1UNL     H9   43   0.094   0.089  -0.171
    1UNL    H10   44   0.511   0.018  -0.169
    1UNL    H11   45   0.737   0.092  -0.218
    1UNL    H12   46   0.845   0.276  -0.092
    1UNL    H13   47   0.729   0.369   0.092
    1UNL    H14   48   0.497   0.325   0.139
    1UNL    H15   49   0.192  -0.116   0.163
    1UNL    H16   50  -0.092  -0.227   0.157
    1UNL    H17   51  -0.054  -0.037   0.146
    1UNL    H18   52  -0.168   0.094   0.064
    1UNL    H19   53  -0.393   0.300  -0.114
    1UNL    H20   54  -0.198   0.366   0.039
    1UNL    H21   55  -0.248   0.261   0.165
    1UNL    H22   56  -0.460   0.395   0.140
    1UNL    H23   57  -0.547   0.118  -0.058
    1UNL    H24   58  -0.668   0.193   0.149
    1UNL    H25   59  -0.418   0.056   0.215
    1UNL    H26   60  -0.577  -0.114   0.069
    1UNL    H27   61  -0.303  -0.126   0.095
    1UNL    H28   62  -0.428  -0.052  -0.149
   0.00000   0.00000   0.00000   0.00000   0.00000   0.00000   0.00000   0.00000   0.00000
Generated with MDTraj, t= 6.0
 62
    1UNL     C1    1  -0.193  -0.336  -0.116
    1UNL     C2    2  -0.051  -0.284  -0.085
    1UNL     C3    3   0.020  -0.371   0.018
    1UNL     C4    4   0.157  -0.303   0.048
    1UNL     O1    5   0.226  -0.371   0.150
    1UNL     O2    6   0.233  -0.298  -0.083
    1UNL     C5    7   0.151  -0.202  -0.162
    1UNL     O3    8   0.033  -0.268  -0.205
    1UNL     C6    9   0.101  -0.093  -0.063
    1UNL     C7   10   0.133   0.062  -0.081
    1UNL     O4   11   0.266   0.087  -0.106
    1UNL     C8   12   0.333   0.127   0.009
    1UNL     O5   13   0.293   0.142   0.126
    1UNL     C9   14   0.475   0.167  -0.019
    1UNL    C10   15   0.547   0.125  -0.128
    1UNL    C11   16   0.680   0.163  -0.148
    1UNL    C12   17   0.743   0.239  -0.053
    1UNL    C13   18   0.676   0.279   0.060
    1UNL    C14   19   0.540   0.253   0.073
    1UNL    C15   20   0.123  -0.149   0.080
    1UNL    C16   21  -0.018  -0.106   0.118
    1UNL    C17   22  -0.048  -0.124  -0.034
    1UNL     O6   23  -0.132  -0.045  -0.111
    1UNL    C18   24  -0.223   0.031  -0.035
    1UNL     O7   25  -0.273   0.150  -0.106
    1UNL    C19   26  -0.354   0.241  -0.028
    1UNL    C20   27  -0.278   0.301   0.084
    1UNL     O8   28  -0.354   0.401   0.140
    1UNL    C21   29  -0.481   0.162   0.018
    1UNL     O9   30  -0.572   0.237   0.107
    1UNL    C22   31  -0.446   0.037   0.097
    1UNL    O10   32  -0.562  -0.034   0.122
    1UNL    C23   33  -0.345  -0.053   0.018
    1UNL    O11   34  -0.406  -0.119  -0.088
    1UNL     H1   35  -0.259  -0.251  -0.140
    1UNL     H2   36  -0.196  -0.393  -0.206
    1UNL     H3   37  -0.235  -0.391  -0.036
    1UNL     H4   38  -0.029  -0.373   0.110
    1UNL     H5   39   0.028  -0.474  -0.035
    1UNL     H6   40   0.229  -0.460   0.121
    1UNL     H7   41   0.206  -0.160  -0.248
    1UNL     H8   42   0.101   0.113   0.007
    1UNL     H9   43   0.078   0.106  -0.168
    1UNL    H10   44   0.511   0.035  -0.167
    1UNL    H11   45   0.742   0.118  -0.226
    1UNL    H12   46   0.842   0.276  -0.070
    1UNL    H13   47   0.709   0.366   0.118
    1UNL    H14   48   0.482   0.300   0.150
    1UNL    H15   49   0.210  -0.099   0.132
    1UNL    H16   50  -0.063  -0.186   0.184
    1UNL    H17   51  -0.004  -0.010   0.156
    1UNL    H18   52  -0.159   0.075   0.053
    1UNL    H19   53  -0.391   0.332  -0.083
    1UNL    H20   54  -0.176   0.336   0.053
    1UNL    H21   55  -0.248   0.223   0.162
    1UNL    H22   56  -0.443   0.368   0.147
    1UNL    H23   57  -0.550   0.126  -0.063
    1UNL    H24   58  -0.629   0.173   0.157
    1UNL    H25   59  -0.393   0.074   0.187
    1UNL    H26   60  -0.563  -0.109   0.059
    1UNL    H27   61  -0.310  -0.130   0.082
    1UNL    H28   62  -0.415  -0.072  -0.180
   0.00000   0.00000   0.00000   0.00000   0.00000   0.00000   0.00000   0.00000   0.00000
Generated with MDTraj, t= 7.0
 62
    1UNL     C1    1  -0.189  -0.320  -0.118
    1UNL     C2    2  -0.048  -0.272  -0.078
    1UNL     C3    3   0.027  -0.360   0.033
    1UNL     C4    4   0.167  -0.292   0.052
    1UNL     O1    5   0.246  -0.352   0.156
    1UNL     O2    6   0.236  -0.291  -0.073
    1UNL     C5    7   0.158  -0.215  -0.165
    1UNL     O3    8   0.038  -0.278  -0.197
    1UNL     C6    9   0.108  -0.097  -0.067
    1UNL     C7   10   0.128   0.055  -0.118
    1UNL     O4   11   0.263   0.085  -0.134
    1UNL     C8   12   0.326   0.103  -0.014
    1UNL     O5   13   0.278   0.096   0.100
    1UNL     C9   14   0.462   0.157  -0.030
    1UNL    C10   15   0.545   0.123  -0.134
    1UNL    C11   16   0.668   0.175  -0.141
    1UNL    C12   17   0.724   0.243  -0.028
    1UNL    C13   18   0.648   0.258   0.083
    1UNL    C14   19   0.517   0.219   0.080
    1UNL    C15   20   0.138  -0.134   0.083
    1UNL    C16   21  -0.004  -0.100   0.119
    1UNL    C17   22  -0.040  -0.124  -0.035
    1UNL     O6   23  -0.135  -0.044  -0.111
    1UNL    C18   24  -0.217   0.038  -0.037
    1UNL     O7   25  -0.270   0.148  -0.100
    1UNL    C19   26  -0.356   0.240  -0.024
    1UNL    C20   27  -0.277   0.305   0.081
    1UNL     O8   28  -0.357   0.389   0.161
    1UNL    C21   29  -0.483   0.166   0.022
    1UNL     O9   30  -0.577   0.246   0.098
    1UNL    C22   31  -0.444   0.042   0.109
    1UNL    O10   32  -0.548  -0.052   0.134
    1UNL    C23   33  -0.346  -0.040   0.011
    1UNL    O11   34  -0.404  -0.084  -0.102
    1UNL     H1   35  -0.238  -0.277  -0.210
    1UNL     H2   36  -0.191  -0.425  -0.137
    1UNL     H3   37  -0.256  -0.309  -0.039
    1UNL     H4   38  -0.028  -0.350   0.120
    1UNL     H5   39   0.048  -0.471   0.007
    1UNL     H6   40   0.319  -0.303   0.178
    1UNL     H7   41   0.207  -0.185  -0.260
    1UNL     H8   42   0.097   0.124  -0.044
    1UNL     H9   43   0.067   0.070  -0.210
    1UNL    H10   44   0.509   0.044  -0.205
    1UNL    H11   45   0.741   0.139  -0.216
    1UNL    H12   46   0.821   0.292  -0.043
    1UNL    H13   47   0.675   0.337   0.153
    1UNL    H14   48   0.449   0.257   0.157
    1UNL    H15   49   0.228  -0.080   0.122
    1UNL    H16   50  -0.054  -0.163   0.197
    1UNL    H17   51  -0.015  -0.001   0.151
    1UNL    H18   52  -0.164   0.069   0.060
    1UNL    H19   53  -0.384   0.331  -0.081
    1UNL    H20   54  -0.188   0.357   0.038
    1UNL    H21   55  -0.223   0.221   0.134
    1UNL    H22   56  -0.452   0.354   0.163
    1UNL    H23   57  -0.543   0.132  -0.070
    1UNL    H24   58  -0.635   0.190   0.149
    1UNL    H25   59  -0.400   0.082   0.200
    1UNL    H26   60  -0.561  -0.117   0.061
    1UNL    H27   61  -0.320  -0.116   0.080
    1UNL    H28   62  -0.347  -0.051  -0.175
   0.00000   0.00000   0.00000   0.00000   0.00000   0.00000   0.00000   0.00000   0.00000
Generated with MDTraj, t= 8.0
 62
    1UNL     C1    1  -0.177  -0.347  -0.113
    1UNL     C2    2  -0.041  -0.292  -0.082
    1UNL     C3    3   0.033  -0.359   0.035
    1UNL     C4    4   0.171  -0.289   0.060
    1UNL     O1    5   0.239  -0.346   0.171
    1UNL     O2    6   0.244  -0.291  -0.068
    1UNL     C5    7   0.168  -0.221  -0.166
    1UNL     O3    8   0.043  -0.296  -0.202
    1UNL     C6    9   0.109  -0.097  -0.084
    1UNL     C7   10   0.142   0.041  -0.153
    1UNL     O4   11   0.282   0.061  -0.152
    1UNL     C8   12   0.327   0.115  -0.032
    1UNL     O5   13   0.250   0.139   0.059
    1UNL     C9   14   0.466   0.159  -0.020
    1UNL    C10   15   0.544   0.144  -0.139
    1UNL    C11   16   0.670   0.188  -0.132
    1UNL    C12   17   0.722   0.241  -0.014
    1UNL    C13   18   0.651   0.234   0.104
    1UNL    C14   19   0.518   0.198   0.099
    1UNL    C15   20   0.135  -0.131   0.071
    1UNL    C16   21  -0.009  -0.099   0.106
    1UNL    C17   22  -0.043  -0.131  -0.049
    1UNL     O6   23  -0.140  -0.046  -0.119
    1UNL    C18   24  -0.220   0.037  -0.031
    1UNL     O7   25  -0.261   0.166  -0.090
    1UNL    C19   26  -0.358   0.253  -0.005
    1UNL    C20   27  -0.289   0.327   0.109
    1UNL     O8   28  -0.377   0.422   0.165
    1UNL    C21   29  -0.483   0.171   0.032
    1UNL     O9   30  -0.576   0.248   0.105
    1UNL    C22   31  -0.444   0.044   0.107
    1UNL    O10   32  -0.545  -0.049   0.140
    1UNL    C23   33  -0.348  -0.039   0.011
    1UNL    O11   34  -0.412  -0.113  -0.094
    1UNL     H1   35  -0.206  -0.286  -0.201
    1UNL     H2   36  -0.174  -0.446  -0.157
    1UNL     H3   37  -0.249  -0.348  -0.033
    1UNL     H4   38  -0.017  -0.365   0.131
    1UNL     H5   39   0.062  -0.458  -0.006
    1UNL     H6   40   0.260  -0.434   0.161
    1UNL     H7   41   0.231  -0.185  -0.252
    1UNL     H8   42   0.094   0.122  -0.106
    1UNL     H9   43   0.112   0.035  -0.259
    1UNL    H10   44   0.505   0.073  -0.207
    1UNL    H11   45   0.735   0.163  -0.212
    1UNL    H12   46   0.822   0.277  -0.018
    1UNL    H13   47   0.692   0.285   0.188
    1UNL    H14   48   0.452   0.209   0.181
    1UNL    H15   49   0.211  -0.056   0.108
    1UNL    H16   50  -0.051  -0.167   0.177
    1UNL    H17   51  -0.032   0.003   0.134
    1UNL    H18   52  -0.146   0.077   0.043
    1UNL    H19   53  -0.380   0.333  -0.077
    1UNL    H20   54  -0.191   0.363   0.070
    1UNL    H21   55  -0.251   0.253   0.184
    1UNL    H22   56  -0.471   0.403   0.145
    1UNL    H23   57  -0.525   0.136  -0.072
    1UNL    H24   58  -0.641   0.195   0.162
    1UNL    H25   59  -0.386   0.071   0.193
    1UNL    H26   60  -0.569  -0.121   0.077
    1UNL    H27   61  -0.309  -0.129   0.062
    1UNL    H28   62  -0.410  -0.068  -0.179
   0.00000   0.00000   0.00000   0.00000   0.00000   0.00000   0.00000   0.00000   0.00000
Generated with MDTraj, t= 9.0
 62
    1UNL     C1    1  -0.205  -0.319  -0.097
    1UNL     C2    2  -0.056  -0.276  -0.065
    1UNL     C3    3   0.018  -0.363   0.036
    1UNL     C4    4   0.162  -0.303   0.047
    1UNL     O1    5   0.229  -0.348   0.160
    1UNL     O2    6   0.221  -0.315  -0.084
    1UNL     C5    7   0.143  -0.230  -0.174
    1UNL     O3    8   0.019  -0.293  -0.190
    1UNL     C6    9   0.117  -0.095  -0.092
    1UNL     C7   10   0.151   0.040  -0.145
    1UNL     O4   11   0.286   0.084  -0.150
    1UNL     C8   12   0.326   0.149  -0.037
    1UNL     O5   13   0.242   0.180   0.046
    1UNL     C9   14   0.469   0.180  -0.024
    1UNL    C10   15   0.547   0.185  -0.138
    1UNL    C11   16   0.685   0.195  -0.124
    1UNL    C12   17   0.736   0.207   0.003
    1UNL    C13   18   0.653   0.212   0.118
    1UNL    C14   19   0.521   0.199   0.107
    1UNL    C15   20   0.156  -0.138   0.058
    1UNL    C16   21   0.017  -0.087   0.109
    1UNL    C17   22  -0.035  -0.123  -0.034
    1UNL     O6   23  -0.129  -0.037  -0.103
    1UNL    C18   24  -0.220   0.040  -0.026
    1UNL     O7   25  -0.278   0.139  -0.100
    1UNL    C19   26  -0.367   0.235  -0.030
    1UNL    C20   27  -0.276   0.306   0.072
    1UNL     O8   28  -0.347   0.400   0.135
    1UNL    C21   29  -0.485   0.155   0.031
    1UNL     O9   30  -0.572   0.235   0.117
    1UNL    C22   31  -0.440   0.031   0.113
    1UNL    O10   32  -0.555  -0.052   0.147
    1UNL    C23   33  -0.332  -0.049   0.023
    1UNL    O11   34  -0.400  -0.106  -0.088
    1UNL     H1   35  -0.260  -0.245  -0.150
    1UNL     H2   36  -0.212  -0.412  -0.152
    1UNL     H3   37  -0.237  -0.337   0.008
    1UNL     H4   38  -0.023  -0.361   0.143
    1UNL     H5   39   0.031  -0.461   0.003
    1UNL     H6   40   0.307  -0.296   0.156
    1UNL     H7   41   0.201  -0.229  -0.271
    1UNL     H8   42   0.090   0.115  -0.100
    1UNL     H9   43   0.128   0.040  -0.255
    1UNL    H10   44   0.505   0.143  -0.232
    1UNL    H11   45   0.753   0.166  -0.207
    1UNL    H12   46   0.842   0.221   0.023
    1UNL    H13   47   0.698   0.236   0.218
    1UNL    H14   48   0.458   0.213   0.198
    1UNL    H15   49   0.240  -0.083   0.105
    1UNL    H16   50  -0.025  -0.157   0.173
    1UNL    H17   51   0.018   0.019   0.144
    1UNL    H18   52  -0.169   0.077   0.061
    1UNL    H19   53  -0.412   0.313  -0.094
    1UNL    H20   54  -0.182   0.350   0.038
    1UNL    H21   55  -0.242   0.230   0.143
    1UNL    H22   56  -0.432   0.360   0.162
    1UNL    H23   57  -0.556   0.121  -0.057
    1UNL    H24   58  -0.631   0.179   0.173
    1UNL    H25   59  -0.393   0.056   0.205
    1UNL    H26   60  -0.582  -0.100   0.066
    1UNL    H27   61  -0.301  -0.137   0.083
    1UNL    H28   62  -0.425  -0.036  -0.163
   0.00000   0.00000   0.00000   0.00000   0.00000   0.00000   0.00000   0.00000   0.00000
Generated with MDTraj, t= 10.0
 62
    1UNL     C1    1  -0.202  -0.341  -0.086
    1UNL     C2    2  -0.057  -0.279  -0.063
    1UNL     C3    3   0.025  -0.353   0.045
    1UNL     C4    4   0.169  -0.288   0.042
    1UNL     O1    5   0.260  -0.339   0.141
    1UNL     O2    6   0.223  -0.301  -0.094
    1UNL     C5    7   0.137  -0.223  -0.178
    1UNL     O3    8   0.013  -0.298  -0.184
    1UNL     C6    9   0.102  -0.096  -0.090
    1UNL     C7   10   0.149   0.036  -0.145
    1UNL     O4   11   0.291   0.063  -0.140
    1UNL     C8   12   0.320   0.137  -0.032
    1UNL     O5   13   0.241   0.185   0.046
    1UNL     C9   14   0.464   0.155  -0.017
    1UNL    C10   15   0.541   0.168  -0.129
    1UNL    C11   16   0.681   0.198  -0.112
    1UNL    C12   17   0.727   0.212   0.015
    1UNL    C13   18   0.646   0.209   0.129
    1UNL    C14   19   0.518   0.174   0.113
    1UNL    C15   20   0.149  -0.130   0.055
    1UNL    C16   21   0.005  -0.078   0.100
    1UNL    C17   22  -0.048  -0.122  -0.041
    1UNL     O6   23  -0.135  -0.033  -0.125
    1UNL    C18   24  -0.218   0.052  -0.047
    1UNL     O7   25  -0.287   0.156  -0.122
    1UNL    C19   26  -0.369   0.238  -0.036
    1UNL    C20   27  -0.285   0.317   0.062
    1UNL     O8   28  -0.362   0.411   0.124
    1UNL    C21   29  -0.476   0.155   0.034
    1UNL     O9   30  -0.562   0.219   0.137
    1UNL    C22   31  -0.423   0.035   0.112
    1UNL    O10   32  -0.523  -0.042   0.166
    1UNL    C23   33  -0.325  -0.046   0.022
    1UNL    O11   34  -0.401  -0.118  -0.076
    1UNL     H1   35  -0.241  -0.294  -0.171
    1UNL     H2   36  -0.197  -0.446  -0.111
    1UNL     H3   37  -0.266  -0.326   0.002
    1UNL     H4   38  -0.009  -0.353   0.156
    1UNL     H5   39   0.038  -0.450   0.016
    1UNL     H6   40   0.284  -0.434   0.127
    1UNL     H7   41   0.174  -0.190  -0.281
    1UNL     H8   42   0.110   0.116  -0.082
    1UNL     H9   43   0.103   0.068  -0.244
    1UNL    H10   44   0.498   0.154  -0.225
    1UNL    H11   45   0.751   0.193  -0.193
    1UNL    H12   46   0.828   0.245   0.036
    1UNL    H13   47   0.684   0.249   0.217
    1UNL    H14   48   0.451   0.181   0.196
    1UNL    H15   49   0.238  -0.074   0.090
    1UNL    H16   50  -0.049  -0.127   0.175
    1UNL    H17   51  -0.003   0.033   0.123
    1UNL    H18   52  -0.155   0.089   0.029
    1UNL    H19   53  -0.424   0.314  -0.096
    1UNL    H20   54  -0.206   0.359   0.005
    1UNL    H21   55  -0.231   0.265   0.140
    1UNL    H22   56  -0.447   0.361   0.151
    1UNL    H23   57  -0.557   0.116  -0.039
    1UNL    H24   58  -0.608   0.147   0.178
    1UNL    H25   59  -0.364   0.064   0.194
    1UNL    H26   60  -0.580  -0.066   0.089
    1UNL    H27   61  -0.270  -0.121   0.085
    1UNL    H28   62  -0.389  -0.064  -0.160
   0.00000   0.00000   0.00000   0.00000   0.00000   0.00000   0.00000   0.00000   0.00000
Generated with MDTraj, t= 11.0
 62
    1UNL     C1    1  -0.186  -0.331  -0.111
    1UNL     C2    2  -0.049  -0.280  -0.080
    1UNL     C3    3   0.035  -0.349   0.026
    1UNL     C4    4   0.173  -0.281   0.046
    1UNL     O1    5   0.248  -0.338   0.155
    1UNL     O2    6   0.235  -0.299  -0.085
    1UNL     C5    7   0.161  -0.221  -0.179
    1UNL     O3    8   0.038  -0.299  -0.202
    1UNL     C6    9   0.115  -0.090  -0.105
    1UNL     C7   10   0.149   0.043  -0.162
    1UNL     O4   11   0.284   0.075  -0.169
    1UNL     C8   12   0.312   0.114  -0.042
    1UNL     O5   13   0.248   0.119   0.061
    1UNL     C9   14   0.451   0.157  -0.014
    1UNL    C10   15   0.541   0.158  -0.122
    1UNL    C11   16   0.675   0.178  -0.100
    1UNL    C12   17   0.714   0.213   0.028
    1UNL    C13   18   0.632   0.210   0.138
    1UNL    C14   19   0.499   0.179   0.114
    1UNL    C15   20   0.149  -0.122   0.049
    1UNL    C16   21   0.008  -0.082   0.082
    1UNL    C17   22  -0.039  -0.120  -0.062
    1UNL     O6   23  -0.141  -0.044  -0.126
    1UNL    C18   24  -0.228   0.045  -0.038
    1UNL     O7   25  -0.286   0.154  -0.117
    1UNL    C19   26  -0.373   0.230  -0.028
    1UNL    C20   27  -0.293   0.334   0.054
    1UNL     O8   28  -0.377   0.439   0.098
    1UNL    C21   29  -0.479   0.150   0.050
    1UNL     O9   30  -0.573   0.230   0.129
    1UNL    C22   31  -0.408   0.041   0.136
    1UNL    O10   32  -0.503  -0.040   0.200
    1UNL    C23   33  -0.325  -0.039   0.035
    1UNL    O11   34  -0.424  -0.106  -0.039
    1UNL     H1   35  -0.216  -0.293  -0.208
    1UNL     H2   36  -0.173  -0.437  -0.126
    1UNL     H3   37  -0.258  -0.318  -0.031
    1UNL     H4   38  -0.011  -0.355   0.127
    1UNL     H5   39   0.058  -0.453   0.003
    1UNL     H6   40   0.323  -0.277   0.183
    1UNL     H7   41   0.220  -0.203  -0.274
    1UNL     H8   42   0.091   0.122  -0.111
    1UNL     H9   43   0.111   0.061  -0.269
    1UNL    H10   44   0.503   0.131  -0.223
    1UNL    H11   45   0.743   0.173  -0.187
    1UNL    H12   46   0.819   0.228   0.044
    1UNL    H13   47   0.667   0.246   0.238
    1UNL    H14   48   0.432   0.176   0.200
    1UNL    H15   49   0.231  -0.060   0.088
    1UNL    H16   50  -0.029  -0.128   0.173
    1UNL    H17   51  -0.001   0.024   0.106
    1UNL    H18   52  -0.165   0.093   0.028
    1UNL    H19   53  -0.427   0.287  -0.107
    1UNL    H20   54  -0.213   0.379  -0.000
    1UNL    H21   55  -0.232   0.284   0.128
    1UNL    H22   56  -0.457   0.397   0.132
    1UNL    H23   57  -0.543   0.101  -0.029
    1UNL    H24   58  -0.641   0.166   0.158
    1UNL    H25   59  -0.366   0.094   0.218
    1UNL    H26   60  -0.562  -0.088   0.136
    1UNL    H27   61  -0.270  -0.126   0.083
    1UNL    H28   62  -0.409  -0.100  -0.131
   0.00000   0.00000   0.00000   0.00000   0.00000   0.00000   0.00000   0.00000   0.00000
Generated with MDTraj, t= 12.0
 62
    1UNL     C1    1  -0.189  -0.322  -0.122
    1UNL     C2    2  -0.046  -0.277  -0.101
    1UNL     C3    3   0.030  -0.364   0.012
    1UNL     C4    4   0.169  -0.287   0.036
    1UNL     O1    5   0.227  -0.342   0.155
    1UNL     O2    6   0.236  -0.291  -0.097
    1UNL     C5    7   0.154  -0.212  -0.182
    1UNL     O3    8   0.040  -0.283  -0.213
    1UNL     C6    9   0.106  -0.093  -0.094
    1UNL     C7   10   0.135   0.046  -0.146
    1UNL     O4   11   0.273   0.085  -0.156
    1UNL     C8   12   0.313   0.135  -0.033
    1UNL     O5   13   0.241   0.161   0.060
    1UNL     C9   14   0.455   0.155  -0.009
    1UNL    C10   15   0.548   0.136  -0.112
    1UNL    C11   16   0.678   0.164  -0.092
    1UNL    C12   17   0.722   0.212   0.032
    1UNL    C13   18   0.633   0.226   0.135
    1UNL    C14   19   0.493   0.190   0.117
    1UNL    C15   20   0.142  -0.138   0.058
    1UNL    C16   21  -0.004  -0.100   0.093
    1UNL    C17   22  -0.047  -0.127  -0.059
    1UNL     O6   23  -0.136  -0.040  -0.124
    1UNL    C18   24  -0.220   0.046  -0.037
    1UNL     O7   25  -0.304   0.129  -0.127
    1UNL    C19   26  -0.393   0.215  -0.049
    1UNL    C20   27  -0.300   0.324   0.013
    1UNL     O8   28  -0.371   0.425   0.080
    1UNL    C21   29  -0.485   0.146   0.057
    1UNL     O9   30  -0.550   0.253   0.132
    1UNL    C22   31  -0.402   0.048   0.143
    1UNL    O10   32  -0.480  -0.028   0.231
    1UNL    C23   33  -0.306  -0.046   0.054
    1UNL    O11   34  -0.384  -0.124  -0.033
    1UNL     H1   35  -0.250  -0.242  -0.170
    1UNL     H2   36  -0.206  -0.405  -0.187
    1UNL     H3   37  -0.235  -0.346  -0.031
    1UNL     H4   38  -0.024  -0.382   0.099
    1UNL     H5   39   0.049  -0.470  -0.027
    1UNL     H6   40   0.242  -0.444   0.133
    1UNL     H7   41   0.212  -0.191  -0.278
    1UNL     H8   42   0.092   0.117  -0.073
    1UNL     H9   43   0.076   0.081  -0.236
    1UNL    H10   44   0.518   0.109  -0.208
    1UNL    H11   45   0.752   0.148  -0.164
    1UNL    H12   46   0.829   0.225   0.039
    1UNL    H13   47   0.667   0.246   0.232
    1UNL    H14   48   0.422   0.208   0.196
    1UNL    H15   49   0.232  -0.088   0.099
    1UNL    H16   50  -0.066  -0.171   0.152
    1UNL    H17   51  -0.010   0.000   0.129
    1UNL    H18   52  -0.162   0.104   0.021
    1UNL    H19   53  -0.448   0.267  -0.130
    1UNL    H20   54  -0.233   0.367  -0.061
    1UNL    H21   55  -0.225   0.287   0.081
    1UNL    H22   56  -0.438   0.397   0.150
    1UNL    H23   57  -0.561   0.092  -0.002
    1UNL    H24   58  -0.617   0.213   0.195
    1UNL    H25   59  -0.340   0.105   0.212
    1UNL    H26   60  -0.539  -0.085   0.178
    1UNL    H27   61  -0.239  -0.108   0.121
    1UNL    H28   62  -0.382  -0.068  -0.117
   0.00000   0.00000   0.00000   0.00000   0.00000   0.00000   0.00000   0.00000   0.00000
Generated with MDTraj, t= 13.0
 62
    1UNL     C1    1  -0.204  -0.328  -0.134
    1UNL     C2    2  -0.062  -0.285  -0.098
    1UNL     C3    3   0.020  -0.368   0.005
    1UNL     C4    4   0.160  -0.296   0.023
    1UNL     O1    5   0.244  -0.352   0.120
    1UNL     O2    6   0.226  -0.296  -0.106
    1UNL     C5    7   0.146  -0.213  -0.188
    1UNL     O3    8   0.027  -0.291  -0.220
    1UNL     C6    9   0.097  -0.093  -0.090
    1UNL     C7   10   0.143   0.050  -0.119
    1UNL     O4   11   0.278   0.075  -0.108
    1UNL     C8   12   0.311   0.159  -0.006
    1UNL     O5   13   0.228   0.203   0.069
    1UNL     C9   14   0.458   0.171   0.006
    1UNL    C10   15   0.541   0.134  -0.097
    1UNL    C11   16   0.675   0.142  -0.087
    1UNL    C12   17   0.734   0.192   0.028
    1UNL    C13   18   0.656   0.242   0.130
    1UNL    C14   19   0.513   0.240   0.120
    1UNL    C15   20   0.130  -0.143   0.050
    1UNL    C16   21  -0.022  -0.111   0.089
    1UNL    C17   22  -0.052  -0.128  -0.063
    1UNL     O6   23  -0.141  -0.046  -0.133
    1UNL    C18   24  -0.231   0.035  -0.050
    1UNL     O7   25  -0.314   0.121  -0.132
    1UNL    C19   26  -0.390   0.213  -0.056
    1UNL    C20   27  -0.298   0.331  -0.002
    1UNL     O8   28  -0.366   0.439   0.049
    1UNL    C21   29  -0.475   0.142   0.061
    1UNL     O9   30  -0.537   0.246   0.138
    1UNL    C22   31  -0.387   0.050   0.139
    1UNL    O10   32  -0.452  -0.017   0.251
    1UNL    C23   33  -0.303  -0.054   0.054
    1UNL    O11   34  -0.389  -0.144  -0.017
    1UNL     H1   35  -0.228  -0.292  -0.238
    1UNL     H2   36  -0.215  -0.433  -0.142
    1UNL     H3   37  -0.280  -0.295  -0.068
    1UNL     H4   38  -0.028  -0.375   0.097
    1UNL     H5   39   0.034  -0.477  -0.031
    1UNL     H6   40   0.340  -0.307   0.119
    1UNL     H7   41   0.208  -0.172  -0.276
    1UNL     H8   42   0.087   0.131  -0.069
    1UNL     H9   43   0.116   0.080  -0.222
    1UNL    H10   44   0.501   0.092  -0.191
    1UNL    H11   45   0.738   0.108  -0.177
    1UNL    H12   46   0.843   0.181   0.035
    1UNL    H13   47   0.698   0.285   0.226
    1UNL    H14   48   0.442   0.268   0.197
    1UNL    H15   49   0.204  -0.096   0.116
    1UNL    H16   50  -0.058  -0.189   0.164
    1UNL    H17   51  -0.027  -0.009   0.123
    1UNL    H18   52  -0.179   0.099   0.009
    1UNL    H19   53  -0.462   0.267  -0.118
    1UNL    H20   54  -0.223   0.363  -0.077
    1UNL    H21   55  -0.235   0.300   0.082
    1UNL    H22   56  -0.455   0.415   0.079
    1UNL    H23   57  -0.563   0.098   0.016
    1UNL    H24   58  -0.565   0.208   0.221
    1UNL    H25   59  -0.309   0.110   0.189
    1UNL    H26   60  -0.506  -0.088   0.211
    1UNL    H27   61  -0.235  -0.118   0.119
    1UNL    H28   62  -0.400  -0.107  -0.112
   0.00000   0.00000   0.00000   0.00000   0.00000   0.00000   0.00000   0.00000   0.00000
Generated with MDTraj, t= 14.0
 62
    1UNL     C1    1  -0.184  -0.345  -0.147
    1UNL     C2    2  -0.046  -0.287  -0.113
    1UNL     C3    3   0.030  -0.378  -0.011
    1UNL     C4    4   0.168  -0.303   0.023
    1UNL     O1    5   0.251  -0.379   0.110
    1UNL     O2    6   0.240  -0.290  -0.102
    1UNL     C5    7   0.157  -0.209  -0.187
    1UNL     O3    8   0.038  -0.282  -0.230
    1UNL     C6    9   0.107  -0.092  -0.090
    1UNL     C7   10   0.137   0.054  -0.123
    1UNL     O4   11   0.273   0.081  -0.123
    1UNL     C8   12   0.311   0.152  -0.014
    1UNL     O5   13   0.228   0.188   0.064
    1UNL     C9   14   0.461   0.164   0.008
    1UNL    C10   15   0.547   0.101  -0.075
    1UNL    C11   16   0.682   0.128  -0.065
    1UNL    C12   17   0.733   0.208   0.034
    1UNL    C13   18   0.641   0.271   0.123
    1UNL    C14   19   0.507   0.250   0.105
    1UNL    C15   20   0.137  -0.147   0.055
    1UNL    C16   21  -0.013  -0.124   0.091
    1UNL    C17   22  -0.044  -0.136  -0.057
    1UNL     O6   23  -0.148  -0.056  -0.125
    1UNL    C18   24  -0.237   0.030  -0.040
    1UNL     O7   25  -0.318   0.110  -0.125
    1UNL    C19   26  -0.385   0.215  -0.048
    1UNL    C20   27  -0.301   0.345  -0.021
    1UNL     O8   28  -0.380   0.448   0.019
    1UNL    C21   29  -0.465   0.155   0.075
    1UNL     O9   30  -0.534   0.244   0.157
    1UNL    C22   31  -0.381   0.060   0.156
    1UNL    O10   32  -0.468  -0.012   0.249
    1UNL    C23   33  -0.324  -0.044   0.065
    1UNL    O11   34  -0.441  -0.098  -0.002
    1UNL     H1   35  -0.251  -0.266  -0.182
    1UNL     H2   36  -0.179  -0.418  -0.226
    1UNL     H3   37  -0.228  -0.388  -0.057
    1UNL     H4   38  -0.030  -0.394   0.082
    1UNL     H5   39   0.046  -0.478  -0.053
    1UNL     H6   40   0.351  -0.345   0.107
    1UNL     H7   41   0.213  -0.174  -0.280
    1UNL     H8   42   0.072   0.121  -0.067
    1UNL     H9   43   0.100   0.076  -0.222
    1UNL    H10   44   0.511   0.052  -0.161
    1UNL    H11   45   0.746   0.086  -0.133
    1UNL    H12   46   0.837   0.232   0.034
    1UNL    H13   47   0.679   0.316   0.206
    1UNL    H14   48   0.429   0.294   0.164
    1UNL    H15   49   0.228  -0.111   0.103
    1UNL    H16   50  -0.054  -0.202   0.162
    1UNL    H17   51  -0.041  -0.021   0.120
    1UNL    H18   52  -0.176   0.089   0.018
    1UNL    H19   53  -0.462   0.245  -0.119
    1UNL    H20   54  -0.263   0.381  -0.121
    1UNL    H21   55  -0.212   0.324   0.041
    1UNL    H22   56  -0.434   0.415   0.095
    1UNL    H23   57  -0.546   0.099   0.036
    1UNL    H24   58  -0.516   0.201   0.244
    1UNL    H25   59  -0.292   0.112   0.201
    1UNL    H26   60  -0.524  -0.075   0.199
    1UNL    H27   61  -0.277  -0.137   0.111
    1UNL    H28   62  -0.433  -0.076  -0.094
   0.00000   0.00000   0.00000   0.00000   0.00000   0.00000   0.00000   0.00000   0.00000
Generated with MDTraj, t= 15.0
 62
    1UNL     C1    1  -0.173  -0.353  -0.147
    1UNL     C2    2  -0.038  -0.291  -0.121
    1UNL     C3    3   0.041  -0.377  -0.019
    1UNL     C4    4   0.178  -0.293   0.015
    1UNL     O1    5   0.241  -0.354   0.125
    1UNL     O2    6   0.247  -0.278  -0.107
    1UNL     C5    7   0.154  -0.201  -0.193
    1UNL     O3    8   0.041  -0.270  -0.239
    1UNL     C6    9   0.092  -0.094  -0.093
    1UNL     C7   10   0.118   0.050  -0.131
    1UNL     O4   11   0.256   0.075  -0.130
    1UNL     C8   12   0.305   0.125  -0.009
    1UNL     O5   13   0.241   0.133   0.092
    1UNL     C9   14   0.446   0.162  -0.006
    1UNL    C10   15   0.548   0.082  -0.062
    1UNL    C11   16   0.681   0.114  -0.040
    1UNL    C12   17   0.713   0.218   0.042
    1UNL    C13   18   0.610   0.290   0.103
    1UNL    C14   19   0.483   0.263   0.076
    1UNL    C15   20   0.131  -0.141   0.048
    1UNL    C16   21  -0.019  -0.118   0.089
    1UNL    C17   22  -0.051  -0.139  -0.063
    1UNL     O6   23  -0.152  -0.057  -0.125
    1UNL    C18   24  -0.224   0.034  -0.035
    1UNL     O7   25  -0.316   0.111  -0.117
    1UNL    C19   26  -0.386   0.218  -0.047
    1UNL    C20   27  -0.297   0.331  -0.003
    1UNL     O8   28  -0.372   0.451   0.022
    1UNL    C21   29  -0.467   0.162   0.072
    1UNL     O9   30  -0.506   0.260   0.163
    1UNL    C22   31  -0.379   0.065   0.151
    1UNL    O10   32  -0.479   0.006   0.244
    1UNL    C23   33  -0.307  -0.041   0.069
    1UNL    O11   34  -0.395  -0.125  -0.003
    1UNL     H1   35  -0.212  -0.303  -0.230
    1UNL     H2   36  -0.163  -0.458  -0.169
    1UNL     H3   37  -0.236  -0.330  -0.058
    1UNL     H4   38  -0.024  -0.401   0.076
    1UNL     H5   39   0.070  -0.471  -0.058
    1UNL     H6   40   0.251  -0.448   0.087
    1UNL     H7   41   0.214  -0.160  -0.282
    1UNL     H8   42   0.061   0.118  -0.069
    1UNL     H9   43   0.070   0.072  -0.224
    1UNL    H10   44   0.518   0.008  -0.139
    1UNL    H11   45   0.753   0.070  -0.115
    1UNL    H12   46   0.817   0.237   0.072
    1UNL    H13   47   0.631   0.363   0.189
    1UNL    H14   48   0.401   0.314   0.125
    1UNL    H15   49   0.202  -0.091   0.111
    1UNL    H16   50  -0.071  -0.195   0.148
    1UNL    H17   51  -0.049  -0.014   0.127
    1UNL    H18   52  -0.159   0.102   0.010
    1UNL    H19   53  -0.448   0.250  -0.131
    1UNL    H20   54  -0.213   0.338  -0.079
    1UNL    H21   55  -0.254   0.304   0.096
    1UNL    H22   56  -0.469   0.430   0.033
    1UNL    H23   57  -0.560   0.126   0.043
    1UNL    H24   58  -0.500   0.211   0.253
    1UNL    H25   59  -0.302   0.123   0.213
    1UNL    H26   60  -0.526  -0.063   0.193
    1UNL    H27   61  -0.245  -0.101   0.142
    1UNL    H28   62  -0.378  -0.095  -0.101
   0.00000   0.00000   0.00000   0.00000   0.00000   0.00000   0.00000   0.00000   0.00000
Generated with MDTraj, t= 16.0
 62
    1UNL     C1    1  -0.189  -0.329  -0.137
    1UNL     C2    2  -0.041  -0.292  -0.109
    1UNL     C3    3   0.038  -0.372  -0.010
    1UNL     C4    4   0.176  -0.294   0.012
    1UNL     O1    5   0.255  -0.349   0.113
    1UNL     O2    6   0.237  -0.293  -0.113
    1UNL     C5    7   0.153  -0.208  -0.192
    1UNL     O3    8   0.031  -0.281  -0.237
    1UNL     C6    9   0.096  -0.092  -0.101
    1UNL     C7   10   0.111   0.057  -0.135
    1UNL     O4   11   0.244   0.094  -0.133
    1UNL     C8   12   0.286   0.123   0.002
    1UNL     O5   13   0.223   0.119   0.108
    1UNL     C9   14   0.434   0.158   0.010
    1UNL    C10   15   0.533   0.066  -0.030
    1UNL    C11   16   0.667   0.104  -0.031
    1UNL    C12   17   0.703   0.231   0.021
    1UNL    C13   18   0.606   0.308   0.084
    1UNL    C14   19   0.475   0.271   0.077
    1UNL    C15   20   0.141  -0.142   0.042
    1UNL    C16   21  -0.007  -0.114   0.089
    1UNL    C17   22  -0.046  -0.137  -0.064
    1UNL     O6   23  -0.148  -0.063  -0.130
    1UNL    C18   24  -0.222   0.029  -0.044
    1UNL     O7   25  -0.311   0.113  -0.123
    1UNL    C19   26  -0.379   0.222  -0.054
    1UNL    C20   27  -0.277   0.327  -0.008
    1UNL     O8   28  -0.327   0.443   0.063
    1UNL    C21   29  -0.465   0.158   0.059
    1UNL     O9   30  -0.524   0.258   0.137
    1UNL    C22   31  -0.371   0.069   0.147
    1UNL    O10   32  -0.458   0.003   0.250
    1UNL    C23   33  -0.301  -0.044   0.060
    1UNL    O11   34  -0.396  -0.133  -0.001
    1UNL     H1   35  -0.234  -0.267  -0.207
    1UNL     H2   36  -0.183  -0.430  -0.181
    1UNL     H3   37  -0.248  -0.333  -0.044
    1UNL     H4   38  -0.017  -0.385   0.087
    1UNL     H5   39   0.063  -0.465  -0.057
    1UNL     H6   40   0.335  -0.302   0.132
    1UNL     H7   41   0.219  -0.176  -0.279
    1UNL     H8   42   0.037   0.126  -0.091
    1UNL     H9   43   0.076   0.066  -0.237
    1UNL    H10   44   0.500  -0.011  -0.094
    1UNL    H11   45   0.743   0.058  -0.087
    1UNL    H12   46   0.806   0.261   0.046
    1UNL    H13   47   0.639   0.385   0.149
    1UNL    H14   48   0.403   0.325   0.136
    1UNL    H15   49   0.219  -0.098   0.103
    1UNL    H16   50  -0.042  -0.187   0.161
    1UNL    H17   51  -0.011  -0.002   0.125
    1UNL    H18   52  -0.157   0.106  -0.012
    1UNL    H19   53  -0.448   0.262  -0.129
    1UNL    H20   54  -0.219   0.369  -0.094
    1UNL    H21   55  -0.212   0.273   0.062
    1UNL    H22   56  -0.415   0.469   0.034
    1UNL    H23   57  -0.553   0.117   0.020
    1UNL    H24   58  -0.547   0.216   0.221
    1UNL    H25   59  -0.289   0.125   0.206
    1UNL    H26   60  -0.482  -0.084   0.215
    1UNL    H27   61  -0.232  -0.101   0.129
    1UNL    H28   62  -0.403  -0.103  -0.097
   0.00000   0.00000   0.00000   0.00000   0.00000   0.00000   0.00000   0.00000   0.00000
Generated with MDTraj, t= 17.0
 62
    1UNL     C1    1  -0.186  -0.355  -0.132
    1UNL     C2    2  -0.045  -0.303  -0.110
    1UNL     C3    3   0.038  -0.374  -0.003
    1UNL     C4    4   0.180  -0.298   0.014
    1UNL     O1    5   0.268  -0.364   0.100
    1UNL     O2    6   0.234  -0.293  -0.116
    1UNL     C5    7   0.143  -0.215  -0.194
    1UNL     O3    8   0.028  -0.291  -0.232
    1UNL     C6    9   0.091  -0.103  -0.100
    1UNL     C7   10   0.122   0.043  -0.151
    1UNL     O4   11   0.259   0.076  -0.130
    1UNL     C8   12   0.284   0.143  -0.010
    1UNL     O5   13   0.203   0.166   0.079
    1UNL     C9   14   0.432   0.171   0.020
    1UNL    C10   15   0.526   0.075  -0.020
    1UNL    C11   16   0.660   0.109  -0.018
    1UNL    C12   17   0.705   0.235   0.024
    1UNL    C13   18   0.614   0.320   0.079
    1UNL    C14   19   0.482   0.291   0.080
    1UNL    C15   20   0.141  -0.152   0.048
    1UNL    C16   21  -0.006  -0.123   0.096
    1UNL    C17   22  -0.052  -0.152  -0.060
    1UNL     O6   23  -0.161  -0.076  -0.125
    1UNL    C18   24  -0.215   0.033  -0.045
    1UNL     O7   25  -0.298   0.121  -0.126
    1UNL    C19   26  -0.367   0.230  -0.051
    1UNL    C20   27  -0.262   0.336   0.011
    1UNL     O8   28  -0.312   0.432   0.101
    1UNL    C21   29  -0.459   0.161   0.054
    1UNL     O9   30  -0.536   0.257   0.120
    1UNL    C22   31  -0.376   0.072   0.144
    1UNL    O10   32  -0.452  -0.002   0.240
    1UNL    C23   33  -0.311  -0.030   0.056
    1UNL    O11   34  -0.419  -0.105  -0.007
    1UNL     H1   35  -0.256  -0.292  -0.185
    1UNL     H2   36  -0.176  -0.446  -0.191
    1UNL     H3   37  -0.233  -0.384  -0.039
    1UNL     H4   38  -0.015  -0.376   0.085
    1UNL     H5   39   0.064  -0.477  -0.038
    1UNL     H6   40   0.304  -0.442   0.068
    1UNL     H7   41   0.197  -0.179  -0.289
    1UNL     H8   42   0.053   0.114  -0.097
    1UNL     H9   43   0.087   0.057  -0.253
    1UNL    H10   44   0.490  -0.005  -0.088
    1UNL    H11   45   0.733   0.046  -0.072
    1UNL    H12   46   0.806   0.260   0.019
    1UNL    H13   47   0.641   0.397   0.147
    1UNL    H14   48   0.413   0.351   0.139
    1UNL    H15   49   0.226  -0.107   0.096
    1UNL    H16   50  -0.050  -0.182   0.179
    1UNL    H17   51  -0.016  -0.012   0.124
    1UNL    H18   52  -0.141   0.104  -0.007
    1UNL    H19   53  -0.430   0.273  -0.132
    1UNL    H20   54  -0.219   0.389  -0.075
    1UNL    H21   55  -0.180   0.290   0.070
    1UNL    H22   56  -0.386   0.392   0.159
    1UNL    H23   57  -0.527   0.099   0.002
    1UNL    H24   58  -0.605   0.205   0.163
    1UNL    H25   59  -0.286   0.126   0.193
    1UNL    H26   60  -0.473  -0.092   0.203
    1UNL    H27   61  -0.261  -0.099   0.130
    1UNL    H28   62  -0.404  -0.100  -0.100
   0.00000   0.00000   0.00000   0.00000   0.00000   0.00000   0.00000   0.00000   0.00000
Generated with MDTraj, t= 18.0
 62
    1UNL     C1    1  -0.182  -0.365  -0.132
    1UNL     C2    2  -0.047  -0.306  -0.110
    1UNL     C3    3   0.041  -0.387  -0.008
    1UNL     C4    4   0.176  -0.305   0.012
    1UNL     O1    5   0.249  -0.360   0.116
    1UNL     O2    6   0.240  -0.302  -0.117
    1UNL     C5    7   0.147  -0.222  -0.198
    1UNL     O3    8   0.032  -0.294  -0.230
    1UNL     C6    9   0.091  -0.108  -0.103
    1UNL     C7   10   0.126   0.031  -0.147
    1UNL     O4   11   0.258   0.060  -0.137
    1UNL     C8   12   0.287   0.150  -0.038
    1UNL     O5   13   0.206   0.186   0.046
    1UNL     C9   14   0.429   0.184  -0.011
    1UNL    C10   15   0.529   0.097  -0.050
    1UNL    C11   16   0.660   0.112  -0.004
    1UNL    C12   17   0.690   0.227   0.064
    1UNL    C13   18   0.596   0.322   0.090
    1UNL    C14   19   0.462   0.301   0.053
    1UNL    C15   20   0.142  -0.155   0.037
    1UNL    C16   21  -0.005  -0.130   0.087
    1UNL    C17   22  -0.047  -0.154  -0.061
    1UNL     O6   23  -0.158  -0.069  -0.114
    1UNL    C18   24  -0.213   0.030  -0.030
    1UNL     O7   25  -0.275   0.126  -0.104
    1UNL    C19   26  -0.346   0.234  -0.035
    1UNL    C20   27  -0.258   0.321   0.049
    1UNL     O8   28  -0.319   0.441   0.098
    1UNL    C21   29  -0.452   0.175   0.050
    1UNL     O9   30  -0.507   0.268   0.140
    1UNL    C22   31  -0.393   0.066   0.142
    1UNL    O10   32  -0.495   0.009   0.226
    1UNL    C23   33  -0.313  -0.037   0.059
    1UNL    O11   34  -0.401  -0.119  -0.024
    1UNL     H1   35  -0.220  -0.353  -0.237
    1UNL     H2   36  -0.173  -0.474  -0.126
    1UNL     H3   37  -0.261  -0.325  -0.074
    1UNL     H4   38  -0.002  -0.398   0.084
    1UNL     H5   39   0.081  -0.485  -0.045
    1UNL     H6   40   0.295  -0.431   0.083
    1UNL     H7   41   0.202  -0.188  -0.293
    1UNL     H8   42   0.057   0.107  -0.094
    1UNL     H9   43   0.101   0.045  -0.254
    1UNL    H10   44   0.507   0.020  -0.119
    1UNL    H11   45   0.743   0.056  -0.046
    1UNL    H12   46   0.799   0.247   0.093
    1UNL    H13   47   0.625   0.397   0.169
    1UNL    H14   48   0.383   0.354   0.103
    1UNL    H15   49   0.214  -0.102   0.098
    1UNL    H16   50  -0.050  -0.211   0.155
    1UNL    H17   51  -0.033  -0.034   0.136
    1UNL    H18   52  -0.135   0.080   0.032
    1UNL    H19   53  -0.390   0.291  -0.119
    1UNL    H20   54  -0.169   0.357   0.000
    1UNL    H21   55  -0.226   0.265   0.136
    1UNL    H22   56  -0.380   0.428   0.172
    1UNL    H23   57  -0.532   0.142  -0.013
    1UNL    H24   58  -0.588   0.211   0.169
    1UNL    H25   59  -0.322   0.125   0.209
    1UNL    H26   60  -0.556  -0.051   0.175
    1UNL    H27   61  -0.258  -0.109   0.125
    1UNL    H28   62  -0.391  -0.080  -0.115
   0.00000   0.00000   0.00000   0.00000   0.00000   0.00000   0.00000   0.00000   0.00000
Generated with MDTraj, t= 19.0
 62
    1UNL     C1    1  -0.194  -0.347  -0.113
    1UNL     C2    2  -0.048  -0.300  -0.100
    1UNL     C3    3   0.032  -0.386  -0.001
    1UNL     C4    4   0.171  -0.316   0.016
    1UNL     O1    5   0.246  -0.376   0.125
    1UNL     O2    6   0.233  -0.318  -0.117
    1UNL     C5    7   0.150  -0.233  -0.191
    1UNL     O3    8   0.026  -0.303  -0.226
    1UNL     C6    9   0.110  -0.107  -0.105
    1UNL     C7   10   0.128   0.035  -0.146
    1UNL     O4   11   0.259   0.075  -0.151
    1UNL     C8   12   0.282   0.154  -0.048
    1UNL     O5   13   0.190   0.205   0.014
    1UNL     C9   14   0.421   0.174  -0.011
    1UNL    C10   15   0.528   0.095  -0.052
    1UNL    C11   16   0.654   0.126  -0.012
    1UNL    C12   17   0.677   0.237   0.063
    1UNL    C13   18   0.574   0.325   0.098
    1UNL    C14   19   0.442   0.284   0.068
    1UNL    C15   20   0.159  -0.158   0.042
    1UNL    C16   21   0.018  -0.116   0.090
    1UNL    C17   22  -0.035  -0.142  -0.056
    1UNL     O6   23  -0.137  -0.052  -0.116
    1UNL    C18   24  -0.212   0.035  -0.024
    1UNL     O7   25  -0.279   0.130  -0.105
    1UNL    C19   26  -0.344   0.238  -0.029
    1UNL    C20   27  -0.233   0.312   0.049
    1UNL     O8   28  -0.275   0.440   0.096
    1UNL    C21   29  -0.444   0.169   0.062
    1UNL     O9   30  -0.503   0.258   0.150
    1UNL    C22   31  -0.399   0.052   0.144
    1UNL    O10   32  -0.516  -0.008   0.200
    1UNL    C23   33  -0.319  -0.048   0.057
    1UNL    O11   34  -0.411  -0.116  -0.037
    1UNL     H1   35  -0.257  -0.256  -0.140
    1UNL     H2   36  -0.204  -0.407  -0.203
    1UNL     H3   37  -0.243  -0.383  -0.027
    1UNL     H4   38  -0.013  -0.399   0.099
    1UNL     H5   39   0.054  -0.481  -0.046
    1UNL     H6   40   0.338  -0.373   0.112
    1UNL     H7   41   0.199  -0.189  -0.286
    1UNL     H8   42   0.060   0.101  -0.080
    1UNL     H9   43   0.089   0.054  -0.247
    1UNL    H10   44   0.521   0.030  -0.140
    1UNL    H11   45   0.733   0.071  -0.057
    1UNL    H12   46   0.771   0.259   0.094
    1UNL    H13   47   0.588   0.395   0.172
    1UNL    H14   48   0.363   0.339   0.119
    1UNL    H15   49   0.256  -0.118   0.069
    1UNL    H16   50  -0.029  -0.197   0.162
    1UNL    H17   51   0.018  -0.013   0.128
    1UNL    H18   52  -0.138   0.080   0.047
    1UNL    H19   53  -0.394   0.308  -0.097
    1UNL    H20   54  -0.149   0.328  -0.013
    1UNL    H21   55  -0.193   0.263   0.138
    1UNL    H22   56  -0.368   0.424   0.129
    1UNL    H23   57  -0.526   0.135  -0.003
    1UNL    H24   58  -0.589   0.219   0.177
    1UNL    H25   59  -0.333   0.082   0.230
    1UNL    H26   60  -0.573  -0.049   0.134
    1UNL    H27   61  -0.276  -0.130   0.117
    1UNL    H28   62  -0.426  -0.052  -0.115
   0.00000   0.00000   0.00000   0.00000   0.00000   0.00000   0.00000   0.00000   0.00000
Generated with MDTraj, t= 20.0
 62
    1UNL     C1    1  -0.209  -0.351  -0.088
    1UNL     C2    2  -0.065  -0.301  -0.081
    1UNL     C3    3   0.026  -0.377   0.025
    1UNL     C4    4   0.171  -0.308   0.021
    1UNL     O1    5   0.265  -0.358   0.114
    1UNL     O2    6   0.217  -0.335  -0.118
    1UNL     C5    7   0.132  -0.263  -0.197
    1UNL     O3    8   0.007  -0.327  -0.204
    1UNL     C6    9   0.105  -0.120  -0.111
    1UNL     C7   10   0.140   0.021  -0.163
    1UNL     O4   11   0.276   0.064  -0.134
    1UNL     C8   12   0.280   0.151  -0.034
    1UNL     O5   13   0.179   0.194   0.021
    1UNL     C9   14   0.416   0.192   0.002
    1UNL    C10   15   0.516   0.124  -0.064
    1UNL    C11   16   0.647   0.147  -0.024
    1UNL    C12   17   0.678   0.247   0.061
    1UNL    C13   18   0.580   0.327   0.117
    1UNL    C14   19   0.445   0.297   0.091
    1UNL    C15   20   0.151  -0.150   0.030
    1UNL    C16   21   0.012  -0.101   0.076
    1UNL    C17   22  -0.047  -0.142  -0.069
    1UNL     O6   23  -0.138  -0.056  -0.140
    1UNL    C18   24  -0.212   0.037  -0.055
    1UNL     O7   25  -0.268   0.141  -0.122
    1UNL    C19   26  -0.330   0.237  -0.028
    1UNL    C20   27  -0.217   0.321   0.055
    1UNL     O8   28  -0.272   0.436   0.125
    1UNL    C21   29  -0.436   0.163   0.066
    1UNL     O9   30  -0.496   0.252   0.157
    1UNL    C22   31  -0.381   0.042   0.136
    1UNL    O10   32  -0.494  -0.031   0.193
    1UNL    C23   33  -0.314  -0.043   0.026
    1UNL    O11   34  -0.426  -0.091  -0.051
    1UNL     H1   35  -0.270  -0.333  -0.181
    1UNL     H2   36  -0.203  -0.457  -0.075
    1UNL     H3   37  -0.257  -0.299  -0.005
    1UNL     H4   38  -0.012  -0.352   0.131
    1UNL     H5   39   0.028  -0.480   0.015
    1UNL     H6   40   0.307  -0.435   0.066
    1UNL     H7   41   0.181  -0.246  -0.300
    1UNL     H8   42   0.073   0.103  -0.121
    1UNL     H9   43   0.123   0.032  -0.269
    1UNL    H10   44   0.491   0.065  -0.150
    1UNL    H11   45   0.730   0.112  -0.090
    1UNL    H12   46   0.784   0.240   0.096
    1UNL    H13   47   0.616   0.404   0.193
    1UNL    H14   48   0.364   0.336   0.150
    1UNL    H15   49   0.233  -0.089   0.064
    1UNL    H16   50  -0.027  -0.153   0.171
    1UNL    H17   51   0.010   0.011   0.093
    1UNL    H18   52  -0.141   0.089   0.021
    1UNL    H19   53  -0.386   0.311  -0.085
    1UNL    H20   54  -0.140   0.353  -0.011
    1UNL    H21   55  -0.170   0.260   0.133
    1UNL    H22   56  -0.350   0.396   0.172
    1UNL    H23   57  -0.520   0.136  -0.004
    1UNL    H24   58  -0.567   0.219   0.209
    1UNL    H25   59  -0.307   0.054   0.217
    1UNL    H26   60  -0.541  -0.075   0.120
    1UNL    H27   61  -0.262  -0.132   0.062
    1UNL    H28   62  -0.426  -0.050  -0.141
   0.00000   0.00000   0.00000   0.00000   0.00000   0.00000   0.00000   0.00000   0.00000
Generated with MDTraj, t= 21.0
 62
    1UNL     C1    1  -0.212  -0.334  -0.089
    1UNL     C2    2  -0.060  -0.295  -0.084
    1UNL     C3    3   0.020  -0.372   0.027
    1UNL     C4    4   0.164  -0.307   0.027
    1UNL     O1    5   0.245  -0.351   0.135
    1UNL     O2    6   0.222  -0.331  -0.105
    1UNL     C5    7   0.134  -0.250  -0.198
    1UNL     O3    8   0.003  -0.316  -0.210
    1UNL     C6    9   0.113  -0.126  -0.120
    1UNL     C7   10   0.141   0.008  -0.187
    1UNL     O4   11   0.284   0.046  -0.172
    1UNL     C8   12   0.287   0.116  -0.056
    1UNL     O5   13   0.189   0.142   0.015
    1UNL     C9   14   0.414   0.173  -0.003
    1UNL    C10   15   0.528   0.131  -0.066
    1UNL    C11   16   0.649   0.184  -0.030
    1UNL    C12   17   0.657   0.284   0.067
    1UNL    C13   18   0.540   0.322   0.133
    1UNL    C14   19   0.420   0.264   0.105
    1UNL    C15   20   0.153  -0.154   0.031
    1UNL    C16   21   0.017  -0.105   0.073
    1UNL    C17   22  -0.038  -0.136  -0.067
    1UNL     O6   23  -0.127  -0.050  -0.137
    1UNL    C18   24  -0.201   0.036  -0.050
    1UNL     O7   25  -0.264   0.144  -0.119
    1UNL    C19   26  -0.328   0.232  -0.025
    1UNL    C20   27  -0.229   0.315   0.054
    1UNL     O8   28  -0.283   0.415   0.141
    1UNL    C21   29  -0.438   0.175   0.065
    1UNL     O9   30  -0.480   0.271   0.158
    1UNL    C22   31  -0.385   0.045   0.134
    1UNL    O10   32  -0.484  -0.010   0.221
    1UNL    C23   33  -0.311  -0.048   0.033
    1UNL    O11   34  -0.412  -0.089  -0.071
    1UNL     H1   35  -0.256  -0.254  -0.147
    1UNL     H2   36  -0.229  -0.420  -0.153
    1UNL     H3   37  -0.268  -0.326   0.008
    1UNL     H4   38  -0.029  -0.377   0.130
    1UNL     H5   39   0.034  -0.472  -0.003
    1UNL     H6   40   0.321  -0.411   0.103
    1UNL     H7   41   0.189  -0.227  -0.297
    1UNL     H8   42   0.080   0.097  -0.159
    1UNL     H9   43   0.122   0.001  -0.291
    1UNL    H10   44   0.523   0.076  -0.159
    1UNL    H11   45   0.728   0.156  -0.092
    1UNL    H12   46   0.755   0.335   0.073
    1UNL    H13   47   0.553   0.378   0.219
    1UNL    H14   48   0.333   0.289   0.165
    1UNL    H15   49   0.240  -0.104   0.068
    1UNL    H16   50  -0.035  -0.161   0.153
    1UNL    H17   51   0.019   0.007   0.108
    1UNL    H18   52  -0.131   0.094   0.024
    1UNL    H19   53  -0.380   0.306  -0.087
    1UNL    H20   54  -0.160   0.363  -0.014
    1UNL    H21   55  -0.169   0.246   0.116
    1UNL    H22   56  -0.366   0.392   0.185
    1UNL    H23   57  -0.524   0.143  -0.004
    1UNL    H24   58  -0.524   0.209   0.226
    1UNL    H25   59  -0.309   0.078   0.205
    1UNL    H26   60  -0.550  -0.062   0.167
    1UNL    H27   61  -0.258  -0.131   0.079
    1UNL    H28   62  -0.392  -0.042  -0.151
   0.00000   0.00000   0.00000   0.00000   0.00000   0.00000   0.00000   0.00000   0.00000
Generated with MDTraj, t= 22.0
 62
    1UNL     C1    1  -0.204  -0.329  -0.114
    1UNL     C2    2  -0.061  -0.294  -0.096
    1UNL     C3    3   0.015  -0.374   0.015
    1UNL     C4    4   0.157  -0.327   0.027
    1UNL     O1    5   0.211  -0.374   0.146
    1UNL     O2    6   0.213  -0.353  -0.099
    1UNL     C5    7   0.142  -0.273  -0.199
    1UNL     O3    8   0.014  -0.328  -0.222
    1UNL     C6    9   0.116  -0.135  -0.127
    1UNL     C7   10   0.151  -0.002  -0.194
    1UNL     O4   11   0.290   0.047  -0.179
    1UNL     C8   12   0.288   0.117  -0.059
    1UNL     O5   13   0.195   0.119   0.020
    1UNL     C9   14   0.410   0.186  -0.018
    1UNL    C10   15   0.534   0.164  -0.080
    1UNL    C11   16   0.650   0.219  -0.034
    1UNL    C12   17   0.644   0.299   0.078
    1UNL    C13   18   0.528   0.311   0.149
    1UNL    C14   19   0.410   0.260   0.100
    1UNL    C15   20   0.155  -0.166   0.023
    1UNL    C16   21   0.020  -0.104   0.067
    1UNL    C17   22  -0.036  -0.136  -0.073
    1UNL     O6   23  -0.123  -0.037  -0.134
    1UNL    C18   24  -0.203   0.041  -0.043
    1UNL     O7   25  -0.268   0.151  -0.109
    1UNL    C19   26  -0.335   0.248  -0.020
    1UNL    C20   27  -0.229   0.321   0.069
    1UNL     O8   28  -0.261   0.446   0.120
    1UNL    C21   29  -0.441   0.177   0.071
    1UNL     O9   30  -0.510   0.276   0.149
    1UNL    C22   31  -0.376   0.048   0.146
    1UNL    O10   32  -0.486  -0.015   0.215
    1UNL    C23   33  -0.297  -0.033   0.051
    1UNL    O11   34  -0.382  -0.109  -0.029
    1UNL     H1   35  -0.259  -0.272  -0.184
    1UNL     H2   36  -0.211  -0.434  -0.146
    1UNL     H3   37  -0.256  -0.310  -0.015
    1UNL     H4   38  -0.040  -0.355   0.105
    1UNL     H5   39   0.011  -0.487   0.000
    1UNL     H6   40   0.317  -0.371   0.137
    1UNL     H7   41   0.201  -0.269  -0.298
    1UNL     H8   42   0.084   0.073  -0.154
    1UNL     H9   43   0.137   0.004  -0.297
    1UNL    H10   44   0.522   0.097  -0.163
    1UNL    H11   45   0.747   0.212  -0.090
    1UNL    H12   46   0.722   0.356   0.109
    1UNL    H13   47   0.531   0.356   0.252
    1UNL    H14   48   0.328   0.244   0.167
    1UNL    H15   49   0.240  -0.109   0.058
    1UNL    H16   50  -0.036  -0.155   0.149
    1UNL    H17   51   0.031   0.011   0.080
    1UNL    H18   52  -0.134   0.099   0.028
    1UNL    H19   53  -0.385   0.317  -0.089
    1UNL    H20   54  -0.141   0.338   0.004
    1UNL    H21   55  -0.188   0.256   0.152
    1UNL    H22   56  -0.361   0.457   0.132
    1UNL    H23   57  -0.519   0.138  -0.006
    1UNL    H24   58  -0.552   0.225   0.220
    1UNL    H25   59  -0.314   0.088   0.222
    1UNL    H26   60  -0.529  -0.082   0.160
    1UNL    H27   61  -0.238  -0.098   0.114
    1UNL    H28   62  -0.391  -0.066  -0.119
   0.00000   0.00000   0.00000   0.00000   0.00000   0.00000   0.00000   0.00000   0.00000
Generated with MDTraj, t= 23.0
 62
    1UNL     C1    1  -0.224  -0.329  -0.116
    1UNL     C2    2  -0.074  -0.300  -0.096
    1UNL     C3    3  -0.002  -0.381   0.016
    1UNL     C4    4   0.151  -0.341   0.016
    1UNL     O1    5   0.232  -0.404   0.113
    1UNL     O2    6   0.203  -0.364  -0.119
    1UNL     C5    7   0.132  -0.274  -0.197
    1UNL     O3    8  -0.004  -0.323  -0.215
    1UNL     C6    9   0.111  -0.139  -0.115
    1UNL     C7   10   0.156   0.001  -0.167
    1UNL     O4   11   0.286   0.031  -0.126
    1UNL     C8   12   0.279   0.126  -0.028
    1UNL     O5   13   0.175   0.169   0.017
    1UNL     C9   14   0.409   0.186  -0.001
    1UNL    C10   15   0.522   0.176  -0.085
    1UNL    C11   16   0.636   0.247  -0.056
    1UNL    C12   17   0.647   0.316   0.067
    1UNL    C13   18   0.540   0.314   0.157
    1UNL    C14   19   0.427   0.253   0.120
    1UNL    C15   20   0.149  -0.179   0.031
    1UNL    C16   21   0.021  -0.111   0.079
    1UNL    C17   22  -0.042  -0.146  -0.062
    1UNL     O6   23  -0.131  -0.052  -0.136
    1UNL    C18   24  -0.195   0.040  -0.049
    1UNL     O7   25  -0.258   0.152  -0.122
    1UNL    C19   26  -0.315   0.249  -0.034
    1UNL    C20   27  -0.217   0.356   0.028
    1UNL     O8   28  -0.293   0.444   0.108
    1UNL    C21   29  -0.419   0.170   0.059
    1UNL     O9   30  -0.489   0.256   0.149
    1UNL    C22   31  -0.354   0.062   0.148
    1UNL    O10   32  -0.458  -0.009   0.211
    1UNL    C23   33  -0.284  -0.039   0.055
    1UNL    O11   34  -0.393  -0.109  -0.018
    1UNL     H1   35  -0.271  -0.283  -0.200
    1UNL     H2   36  -0.247  -0.437  -0.134
    1UNL     H3   37  -0.277  -0.290  -0.028
    1UNL     H4   38  -0.048  -0.383   0.110
    1UNL     H5   39  -0.020  -0.489  -0.026
    1UNL     H6   40   0.319  -0.434   0.061
    1UNL     H7   41   0.185  -0.245  -0.296
    1UNL     H8   42   0.091   0.073  -0.118
    1UNL     H9   43   0.149   0.022  -0.272
    1UNL    H10   44   0.518   0.111  -0.173
    1UNL    H11   45   0.719   0.258  -0.117
    1UNL    H12   46   0.741   0.379   0.097
    1UNL    H13   47   0.550   0.352   0.256
    1UNL    H14   48   0.352   0.250   0.199
    1UNL    H15   49   0.242  -0.135   0.067
    1UNL    H16   50  -0.030  -0.160   0.171
    1UNL    H17   51   0.036  -0.002   0.086
    1UNL    H18   52  -0.111   0.098  -0.005
    1UNL    H19   53  -0.392   0.304  -0.094
    1UNL    H20   54  -0.170   0.416  -0.054
    1UNL    H21   55  -0.130   0.317   0.090
    1UNL    H22   56  -0.360   0.387   0.151
    1UNL    H23   57  -0.496   0.121  -0.013
    1UNL    H24   58  -0.532   0.207   0.219
    1UNL    H25   59  -0.284   0.084   0.224
    1UNL    H26   60  -0.499  -0.068   0.144
    1UNL    H27   61  -0.220  -0.103   0.113
    1UNL    H28   62  -0.396  -0.066  -0.111
   0.00000   0.00000   0.00000   0.00000   0.00000   0.00000   0.00000   0.00000   0.00000
Generated with MDTraj, t= 24.0
 62
    1UNL     C1    1  -0.224  -0.338  -0.097
    1UNL     C2    2  -0.074  -0.304  -0.091
    1UNL     C3    3  -0.000  -0.402  -0.002
    1UNL     C4    4   0.150  -0.360   0.000
    1UNL     O1    5   0.230  -0.426   0.101
    1UNL     O2    6   0.196  -0.371  -0.134
    1UNL     C5    7   0.123  -0.272  -0.209
    1UNL     O3    8  -0.011  -0.316  -0.227
    1UNL     C6    9   0.115  -0.147  -0.116
    1UNL     C7   10   0.159  -0.002  -0.155
    1UNL     O4   11   0.280   0.039  -0.106
    1UNL     C8   12   0.269   0.129  -0.008
    1UNL     O5   13   0.162   0.162   0.041
    1UNL     C9   14   0.398   0.210   0.014
    1UNL    C10   15   0.499   0.202  -0.083
    1UNL    C11   16   0.626   0.259  -0.060
    1UNL    C12   17   0.654   0.311   0.065
    1UNL    C13   18   0.558   0.317   0.160
    1UNL    C14   19   0.429   0.273   0.140
    1UNL    C15   20   0.160  -0.195   0.027
    1UNL    C16   21   0.032  -0.128   0.082
    1UNL    C17   22  -0.027  -0.154  -0.055
    1UNL     O6   23  -0.118  -0.056  -0.124
    1UNL    C18   24  -0.196   0.035  -0.049
    1UNL     O7   25  -0.266   0.132  -0.131
    1UNL    C19   26  -0.329   0.237  -0.051
    1UNL    C20   27  -0.223   0.322   0.016
    1UNL     O8   28  -0.292   0.438   0.073
    1UNL    C21   29  -0.424   0.174   0.062
    1UNL     O9   30  -0.482   0.274   0.149
    1UNL    C22   31  -0.342   0.080   0.149
    1UNL    O10   32  -0.426   0.022   0.247
    1UNL    C23   33  -0.288  -0.029   0.049
    1UNL    O11   34  -0.395  -0.074  -0.039
    1UNL     H1   35  -0.280  -0.257  -0.147
    1UNL     H2   36  -0.244  -0.429  -0.159
    1UNL     H3   37  -0.265  -0.344   0.002
    1UNL     H4   38  -0.039  -0.404   0.097
    1UNL     H5   39  -0.011  -0.509  -0.041
    1UNL     H6   40   0.326  -0.432   0.062
    1UNL     H7   41   0.189  -0.254  -0.303
    1UNL     H8   42   0.083   0.073  -0.126
    1UNL     H9   43   0.164  -0.002  -0.264
    1UNL    H10   44   0.474   0.154  -0.174
    1UNL    H11   45   0.695   0.266  -0.150
    1UNL    H12   46   0.750   0.351   0.082
    1UNL    H13   47   0.584   0.367   0.255
    1UNL    H14   48   0.345   0.283   0.207
    1UNL    H15   49   0.258  -0.157   0.058
    1UNL    H16   50  -0.023  -0.189   0.165
    1UNL    H17   51   0.051  -0.025   0.112
    1UNL    H18   52  -0.124   0.092   0.010
    1UNL    H19   53  -0.398   0.298  -0.116
    1UNL    H20   54  -0.142   0.350  -0.055
    1UNL    H21   55  -0.170   0.269   0.100
    1UNL    H22   56  -0.375   0.401   0.101
    1UNL    H23   57  -0.511   0.116   0.010
    1UNL    H24   58  -0.522   0.233   0.232
    1UNL    H25   59  -0.268   0.132   0.207
    1UNL    H26   60  -0.492  -0.040   0.205
    1UNL    H27   61  -0.252  -0.108   0.113
    1UNL    H28   62  -0.381  -0.035  -0.127
   0.00000   0.00000   0.00000   0.00000   0.00000   0.00000   0.00000   0.00000   0.00000
Generated with MDTraj, t= 25.0
 62
    1UNL     C1    1  -0.210  -0.348  -0.116
    1UNL     C2    2  -0.066  -0.312  -0.112
    1UNL     C3    3   0.008  -0.410  -0.011
    1UNL     C4    4   0.155  -0.348   0.006
    1UNL     O1    5   0.229  -0.414   0.107
    1UNL     O2    6   0.204  -0.362  -0.132
    1UNL     C5    7   0.129  -0.267  -0.215
    1UNL     O3    8   0.001  -0.316  -0.243
    1UNL     C6    9   0.099  -0.146  -0.116
    1UNL     C7   10   0.135  -0.004  -0.171
    1UNL     O4   11   0.265   0.043  -0.140
    1UNL     C8   12   0.276   0.113  -0.021
    1UNL     O5   13   0.176   0.124   0.047
    1UNL     C9   14   0.403   0.187   0.024
    1UNL    C10   15   0.503   0.196  -0.071
    1UNL    C11   16   0.615   0.274  -0.049
    1UNL    C12   17   0.631   0.337   0.072
    1UNL    C13   18   0.530   0.322   0.172
    1UNL    C14   19   0.414   0.252   0.144
    1UNL    C15   20   0.152  -0.189   0.023
    1UNL    C16   21   0.018  -0.141   0.083
    1UNL    C17   22  -0.045  -0.161  -0.063
    1UNL     O6   23  -0.134  -0.069  -0.126
    1UNL    C18   24  -0.191   0.031  -0.039
    1UNL     O7   25  -0.255   0.134  -0.114
    1UNL    C19   26  -0.321   0.244  -0.040
    1UNL    C20   27  -0.218   0.344   0.007
    1UNL     O8   28  -0.274   0.473   0.033
    1UNL    C21   29  -0.416   0.195   0.074
    1UNL     O9   30  -0.455   0.307   0.157
    1UNL    C22   31  -0.353   0.080   0.157
    1UNL    O10   32  -0.453   0.019   0.233
    1UNL    C23   33  -0.278  -0.027   0.072
    1UNL    O11   34  -0.361  -0.119   0.013
    1UNL     H1   35  -0.267  -0.277  -0.183
    1UNL     H2   36  -0.220  -0.448  -0.159
    1UNL     H3   37  -0.251  -0.337  -0.018
    1UNL     H4   38  -0.035  -0.422   0.093
    1UNL     H5   39   0.012  -0.508  -0.053
    1UNL     H6   40   0.300  -0.469   0.063
    1UNL     H7   41   0.174  -0.241  -0.320
    1UNL     H8   42   0.053   0.059  -0.125
    1UNL     H9   43   0.125   0.004  -0.281
    1UNL    H10   44   0.502   0.142  -0.167
    1UNL    H11   45   0.683   0.290  -0.125
    1UNL    H12   46   0.714   0.403   0.083
    1UNL    H13   47   0.531   0.390   0.254
    1UNL    H14   48   0.335   0.244   0.219
    1UNL    H15   49   0.240  -0.130   0.052
    1UNL    H16   50  -0.035  -0.211   0.157
    1UNL    H17   51   0.012  -0.036   0.114
    1UNL    H18   52  -0.103   0.078   0.001
    1UNL    H19   53  -0.388   0.299  -0.113
    1UNL    H20   54  -0.145   0.364  -0.075
    1UNL    H21   55  -0.156   0.305   0.090
    1UNL    H22   56  -0.352   0.457   0.096
    1UNL    H23   57  -0.503   0.140   0.024
    1UNL    H24   58  -0.514   0.264   0.223
    1UNL    H25   59  -0.284   0.142   0.214
    1UNL    H26   60  -0.493  -0.058   0.189
    1UNL    H27   61  -0.217  -0.087   0.139
    1UNL    H28   62  -0.384  -0.080  -0.070
   0.00000   0.00000   0.00000   0.00000   0.00000   0.00000   0.00000   0.00000   0.00000
Generated with MDTraj, t= 26.0
 62
    1UNL     C1    1  -0.205  -0.351  -0.132
    1UNL     C2    2  -0.060  -0.312  -0.111
    1UNL     C3    3   0.021  -0.396  -0.010
    1UNL     C4    4   0.166  -0.337   0.002
    1UNL     O1    5   0.249  -0.397   0.108
    1UNL     O2    6   0.224  -0.347  -0.132
    1UNL     C5    7   0.147  -0.258  -0.217
    1UNL     O3    8   0.012  -0.313  -0.237
    1UNL     C6    9   0.106  -0.139  -0.127
    1UNL     C7   10   0.128  -0.001  -0.182
    1UNL     O4   11   0.258   0.036  -0.157
    1UNL     C8   12   0.270   0.087  -0.025
    1UNL     O5   13   0.180   0.073   0.055
    1UNL     C9   14   0.383   0.168   0.016
    1UNL    C10   15   0.489   0.192  -0.072
    1UNL    C11   16   0.595   0.272  -0.033
    1UNL    C12   17   0.602   0.328   0.089
    1UNL    C13   18   0.494   0.325   0.176
    1UNL    C14   19   0.387   0.237   0.134
    1UNL    C15   20   0.148  -0.182   0.026
    1UNL    C16   21   0.011  -0.138   0.075
    1UNL    C17   22  -0.046  -0.160  -0.075
    1UNL     O6   23  -0.153  -0.080  -0.121
    1UNL    C18   24  -0.198   0.037  -0.045
    1UNL     O7   25  -0.272   0.127  -0.119
    1UNL    C19   26  -0.314   0.243  -0.042
    1UNL    C20   27  -0.199   0.347  -0.019
    1UNL     O8   28  -0.234   0.467   0.039
    1UNL    C21   29  -0.411   0.211   0.076
    1UNL     O9   30  -0.452   0.321   0.153
    1UNL    C22   31  -0.353   0.094   0.163
    1UNL    O10   32  -0.445   0.035   0.250
    1UNL    C23   33  -0.277  -0.022   0.082
    1UNL    O11   34  -0.364  -0.129   0.044
    1UNL     H1   35  -0.242  -0.296  -0.223
    1UNL     H2   36  -0.216  -0.456  -0.152
    1UNL     H3   37  -0.264  -0.314  -0.047
    1UNL     H4   38  -0.028  -0.396   0.094
    1UNL     H5   39   0.031  -0.492  -0.047
    1UNL     H6   40   0.334  -0.423   0.067
    1UNL     H7   41   0.194  -0.222  -0.318
    1UNL     H8   42   0.054   0.072  -0.138
    1UNL     H9   43   0.104  -0.013  -0.293
    1UNL    H10   44   0.500   0.133  -0.159
    1UNL    H11   45   0.690   0.263  -0.096
    1UNL    H12   46   0.683   0.407   0.111
    1UNL    H13   47   0.486   0.370   0.275
    1UNL    H14   48   0.302   0.224   0.198
    1UNL    H15   49   0.237  -0.129   0.064
    1UNL    H16   50  -0.031  -0.197   0.159
    1UNL    H17   51   0.019  -0.028   0.101
    1UNL    H18   52  -0.113   0.093  -0.017
    1UNL    H19   53  -0.381   0.301  -0.111
    1UNL    H20   54  -0.157   0.370  -0.117
    1UNL    H21   55  -0.120   0.307   0.044
    1UNL    H22   56  -0.311   0.455   0.094
    1UNL    H23   57  -0.500   0.168   0.024
    1UNL    H24   58  -0.508   0.296   0.225
    1UNL    H25   59  -0.287   0.152   0.232
    1UNL    H26   60  -0.488  -0.047   0.214
    1UNL    H27   61  -0.219  -0.075   0.156
    1UNL    H28   62  -0.385  -0.109  -0.050
   0.00000   0.00000   0.00000   0.00000   0.00000   0.00000   0.00000   0.00000   0.00000
Generated with MDTraj, t= 27.0
 62
    1UNL     C1    1  -0.205  -0.385  -0.108
    1UNL     C2    2  -0.061  -0.325  -0.104
    1UNL     C3    3   0.031  -0.407  -0.011
    1UNL     C4    4   0.167  -0.334  -0.007
    1UNL     O1    5   0.257  -0.398   0.087
    1UNL     O2    6   0.213  -0.349  -0.142
    1UNL     C5    7   0.130  -0.262  -0.222
    1UNL     O3    8   0.007  -0.334  -0.240
    1UNL     C6    9   0.089  -0.138  -0.125
    1UNL     C7   10   0.114   0.007  -0.169
    1UNL     O4   11   0.243   0.058  -0.138
    1UNL     C8   12   0.241   0.119  -0.017
    1UNL     O5   13   0.140   0.133   0.053
    1UNL     C9   14   0.376   0.189   0.022
    1UNL    C10   15   0.484   0.205  -0.062
    1UNL    C11   16   0.604   0.263  -0.021
    1UNL    C12   17   0.611   0.328   0.102
    1UNL    C13   18   0.501   0.319   0.186
    1UNL    C14   19   0.387   0.249   0.144
    1UNL    C15   20   0.148  -0.181   0.013
    1UNL    C16   21   0.016  -0.136   0.072
    1UNL    C17   22  -0.053  -0.173  -0.067
    1UNL     O6   23  -0.159  -0.099  -0.122
    1UNL    C18   24  -0.198   0.020  -0.056
    1UNL     O7   25  -0.271   0.112  -0.130
    1UNL    C19   26  -0.303   0.232  -0.059
    1UNL    C20   27  -0.173   0.311  -0.010
    1UNL     O8   28  -0.220   0.426   0.049
    1UNL    C21   29  -0.396   0.198   0.069
    1UNL     O9   30  -0.450   0.310   0.136
    1UNL    C22   31  -0.312   0.103   0.162
    1UNL    O10   32  -0.386   0.068   0.276
    1UNL    C23   33  -0.281  -0.025   0.064
    1UNL    O11   34  -0.410  -0.067   0.017
    1UNL     H1   35  -0.283  -0.323  -0.155
    1UNL     H2   36  -0.204  -0.477  -0.163
    1UNL     H3   37  -0.242  -0.402  -0.003
    1UNL     H4   38  -0.004  -0.413   0.094
    1UNL     H5   39   0.045  -0.505  -0.052
    1UNL     H6   40   0.316  -0.446   0.032
    1UNL     H7   41   0.196  -0.235  -0.315
    1UNL     H8   42   0.037   0.078  -0.123
    1UNL     H9   43   0.089   0.014  -0.279
    1UNL    H10   44   0.497   0.140  -0.150
    1UNL    H11   45   0.689   0.249  -0.080
    1UNL    H12   46   0.694   0.375   0.134
    1UNL    H13   47   0.502   0.376   0.279
    1UNL    H14   48   0.298   0.238   0.209
    1UNL    H15   49   0.237  -0.120   0.035
    1UNL    H16   50  -0.021  -0.192   0.155
    1UNL    H17   51   0.015  -0.025   0.109
    1UNL    H18   52  -0.113   0.070  -0.024
    1UNL    H19   53  -0.361   0.301  -0.122
    1UNL    H20   54  -0.102   0.336  -0.088
    1UNL    H21   55  -0.120   0.261   0.070
    1UNL    H22   56  -0.314   0.412   0.082
    1UNL    H23   57  -0.481   0.142   0.030
    1UNL    H24   58  -0.473   0.297   0.235
    1UNL    H25   59  -0.212   0.139   0.200
    1UNL    H26   60  -0.449  -0.000   0.243
    1UNL    H27   61  -0.240  -0.114   0.113
    1UNL    H28   62  -0.399  -0.058  -0.085
   0.00000   0.00000   0.00000   0.00000   0.00000   0.00000   0.00000   0.00000   0.00000
Generated with MDTraj, t= 28.0
 62
    1UNL     C1    1  -0.195  -0.394  -0.096
    1UNL     C2    2  -0.052  -0.339  -0.108
    1UNL     C3    3   0.041  -0.418  -0.017
    1UNL     C4    4   0.177  -0.341  -0.012
    1UNL     O1    5   0.277  -0.392   0.077
    1UNL     O2    6   0.219  -0.341  -0.152
    1UNL     C5    7   0.128  -0.260  -0.224
    1UNL     O3    8   0.008  -0.334  -0.238
    1UNL     C6    9   0.088  -0.144  -0.124
    1UNL     C7   10   0.112  -0.002  -0.164
    1UNL     O4   11   0.233   0.046  -0.109
    1UNL     C8   12   0.212   0.147  -0.018
    1UNL     O5   13   0.100   0.187   0.010
    1UNL     C9   14   0.343   0.214   0.022
    1UNL    C10   15   0.457   0.199  -0.059
    1UNL    C11   16   0.586   0.240  -0.016
    1UNL    C12   17   0.599   0.297   0.109
    1UNL    C13   18   0.487   0.307   0.190
    1UNL    C14   19   0.361   0.260   0.153
    1UNL    C15   20   0.153  -0.190   0.015
    1UNL    C16   21   0.011  -0.151   0.074
    1UNL    C17   22  -0.051  -0.180  -0.064
    1UNL     O6   23  -0.158  -0.102  -0.124
    1UNL    C18   24  -0.194   0.012  -0.048
    1UNL     O7   25  -0.262   0.114  -0.129
    1UNL    C19   26  -0.285   0.244  -0.061
    1UNL    C20   27  -0.160   0.326  -0.037
    1UNL     O8   28  -0.200   0.437   0.045
    1UNL    C21   29  -0.362   0.212   0.073
    1UNL     O9   30  -0.391   0.317   0.160
    1UNL    C22   31  -0.309   0.090   0.162
    1UNL    O10   32  -0.403   0.069   0.260
    1UNL    C23   33  -0.293  -0.029   0.067
    1UNL    O11   34  -0.420  -0.073   0.022
    1UNL     H1   35  -0.262  -0.343  -0.162
    1UNL     H2   36  -0.208  -0.501  -0.116
    1UNL     H3   37  -0.236  -0.367   0.006
    1UNL     H4   38   0.003  -0.444   0.076
    1UNL     H5   39   0.067  -0.512  -0.072
    1UNL     H6   40   0.359  -0.379   0.039
    1UNL     H7   41   0.169  -0.231  -0.330
    1UNL     H8   42   0.034   0.065  -0.116
    1UNL     H9   43   0.101   0.023  -0.271
    1UNL    H10   44   0.445   0.156  -0.155
    1UNL    H11   45   0.676   0.217  -0.074
    1UNL    H12   46   0.702   0.335   0.138
    1UNL    H13   47   0.485   0.377   0.271
    1UNL    H14   48   0.270   0.278   0.202
    1UNL    H15   49   0.241  -0.127   0.042
    1UNL    H16   50  -0.022  -0.218   0.151
    1UNL    H17   51   0.008  -0.046   0.121
    1UNL    H18   52  -0.109   0.046  -0.002
    1UNL    H19   53  -0.352   0.296  -0.126
    1UNL    H20   54  -0.106   0.361  -0.124
    1UNL    H21   55  -0.091   0.261   0.012
    1UNL    H22   56  -0.267   0.403   0.111
    1UNL    H23   57  -0.459   0.178   0.044
    1UNL    H24   58  -0.400   0.275   0.252
    1UNL    H25   59  -0.206   0.112   0.210
    1UNL    H26   60  -0.474   0.020   0.218
    1UNL    H27   61  -0.264  -0.117   0.129
    1UNL    H28   62  -0.396  -0.102  -0.068
   0.00000   0.00000   0.00000   0.00000   0.00000   0.00000   0.00000   0.00000   0.00000
Generated with MDTraj, t= 29.0
 62
    1UNL     C1    1  -0.194  -0.396  -0.115
    1UNL     C2    2  -0.056  -0.332  -0.109
    1UNL     C3    3   0.044  -0.412  -0.017
    1UNL     C4    4   0.185  -0.342  -0.016
    1UNL     O1    5   0.277  -0.384   0.082
    1UNL     O2    6   0.227  -0.346  -0.154
    1UNL     C5    7   0.133  -0.263  -0.227
    1UNL     O3    8   0.008  -0.334  -0.242
    1UNL     C6    9   0.095  -0.139  -0.133
    1UNL     C7   10   0.101  -0.003  -0.186
    1UNL     O4   11   0.217   0.065  -0.161
    1UNL     C8   12   0.204   0.151  -0.052
    1UNL     O5   13   0.093   0.171  -0.007
    1UNL     C9   14   0.327   0.211   0.009
    1UNL    C10   15   0.454   0.189  -0.051
    1UNL    C11   16   0.570   0.227   0.012
    1UNL    C12   17   0.563   0.293   0.137
    1UNL    C13   18   0.440   0.311   0.203
    1UNL    C14   19   0.327   0.268   0.140
    1UNL    C15   20   0.150  -0.184   0.010
    1UNL    C16   21   0.011  -0.157   0.073
    1UNL    C17   22  -0.049  -0.184  -0.067
    1UNL     O6   23  -0.157  -0.098  -0.106
    1UNL    C18   24  -0.184   0.012  -0.023
    1UNL     O7   25  -0.245   0.117  -0.098
    1UNL    C19   26  -0.264   0.235  -0.025
    1UNL    C20   27  -0.139   0.312   0.001
    1UNL     O8   28  -0.153   0.456  -0.023
    1UNL    C21   29  -0.365   0.217   0.089
    1UNL     O9   30  -0.356   0.340   0.163
    1UNL    C22   31  -0.319   0.091   0.179
    1UNL    O10   32  -0.428   0.052   0.267
    1UNL    C23   33  -0.283  -0.024   0.080
    1UNL    O11   34  -0.394  -0.096   0.025
    1UNL     H1   35  -0.255  -0.350  -0.189
    1UNL     H2   36  -0.181  -0.504  -0.146
    1UNL     H3   37  -0.249  -0.384  -0.020
    1UNL     H4   38  -0.006  -0.425   0.072
    1UNL     H5   39   0.059  -0.516  -0.057
    1UNL     H6   40   0.311  -0.468   0.060
    1UNL     H7   41   0.173  -0.227  -0.332
    1UNL     H8   42   0.019   0.061  -0.139
    1UNL     H9   43   0.080   0.010  -0.291
    1UNL    H10   44   0.458   0.121  -0.135
    1UNL    H11   45   0.669   0.209  -0.032
    1UNL    H12   46   0.651   0.336   0.185
    1UNL    H13   47   0.431   0.389   0.283
    1UNL    H14   48   0.229   0.294   0.188
    1UNL    H15   49   0.231  -0.120   0.054
    1UNL    H16   50   0.003  -0.235   0.153
    1UNL    H17   51  -0.011  -0.057   0.108
    1UNL    H18   52  -0.094   0.046   0.010
    1UNL    H19   53  -0.312   0.293  -0.102
    1UNL    H20   54  -0.064   0.271  -0.067
    1UNL    H21   55  -0.096   0.296   0.098
    1UNL    H22   56  -0.230   0.488   0.021
    1UNL    H23   57  -0.463   0.203   0.055
    1UNL    H24   58  -0.409   0.322   0.238
    1UNL    H25   59  -0.228   0.131   0.237
    1UNL    H26   60  -0.498   0.005   0.214
    1UNL    H27   61  -0.248  -0.105   0.151
    1UNL    H28   62  -0.375  -0.105  -0.069
   0.00000   0.00000   0.00000   0.00000   0.00000   0.00000   0.00000   0.00000   0.00000
Generated with MDTraj, t= 30.0
 62
    1UNL     C1    1  -0.190  -0.387  -0.094
    1UNL     C2    2  -0.047  -0.335  -0.107
    1UNL     C3    3   0.050  -0.409  -0.006
    1UNL     C4    4   0.193  -0.339  -0.025
    1UNL     O1    5   0.296  -0.387   0.063
    1UNL     O2    6   0.224  -0.350  -0.165
    1UNL     C5    7   0.126  -0.272  -0.239
    1UNL     O3    8   0.004  -0.340  -0.243
    1UNL     C6    9   0.094  -0.142  -0.141
    1UNL     C7   10   0.104  -0.004  -0.211
    1UNL     O4   11   0.221   0.068  -0.178
    1UNL     C8   12   0.206   0.119  -0.052
    1UNL     O5   13   0.105   0.100   0.010
    1UNL     C9   14   0.318   0.189   0.023
    1UNL    C10   15   0.448   0.166  -0.025
    1UNL    C11   16   0.552   0.228   0.038
    1UNL    C12   17   0.526   0.308   0.152
    1UNL    C13   18   0.398   0.337   0.195
    1UNL    C14   19   0.296   0.275   0.130
    1UNL    C15   20   0.166  -0.184  -0.007
    1UNL    C16   21   0.026  -0.151   0.067
    1UNL    C17   22  -0.040  -0.175  -0.070
    1UNL     O6   23  -0.157  -0.101  -0.112
    1UNL    C18   24  -0.185   0.014  -0.032
    1UNL     O7   25  -0.255   0.117  -0.112
    1UNL    C19   26  -0.268   0.239  -0.043
    1UNL    C20   27  -0.135   0.317  -0.022
    1UNL     O8   28  -0.148   0.449   0.020
    1UNL    C21   29  -0.353   0.225   0.088
    1UNL     O9   30  -0.363   0.355   0.149
    1UNL    C22   31  -0.302   0.111   0.178
    1UNL    O10   32  -0.398   0.071   0.289
    1UNL    C23   33  -0.287  -0.014   0.086
    1UNL    O11   34  -0.404  -0.078   0.044
    1UNL     H1   35  -0.258  -0.314  -0.139
    1UNL     H2   36  -0.195  -0.480  -0.158
    1UNL     H3   37  -0.221  -0.403   0.008
    1UNL     H4   38   0.011  -0.405   0.096
    1UNL     H5   39   0.054  -0.514  -0.034
    1UNL     H6   40   0.379  -0.339   0.039
    1UNL     H7   41   0.170  -0.246  -0.345
    1UNL     H8   42   0.020   0.062  -0.170
    1UNL     H9   43   0.095   0.002  -0.316
    1UNL    H10   44   0.450   0.074  -0.082
    1UNL    H11   45   0.649   0.196   0.023
    1UNL    H12   46   0.602   0.365   0.197
    1UNL    H13   47   0.390   0.406   0.272
    1UNL    H14   48   0.198   0.296   0.156
    1UNL    H15   49   0.258  -0.119   0.002
    1UNL    H16   50  -0.006  -0.224   0.150
    1UNL    H17   51   0.017  -0.053   0.105
    1UNL    H18   52  -0.092   0.056  -0.009
    1UNL    H19   53  -0.326   0.306  -0.104
    1UNL    H20   54  -0.069   0.327  -0.112
    1UNL    H21   55  -0.073   0.268   0.053
    1UNL    H22   56  -0.221   0.453   0.086
    1UNL    H23   57  -0.447   0.191   0.055
    1UNL    H24   58  -0.430   0.351   0.221
    1UNL    H25   59  -0.199   0.131   0.222
    1UNL    H26   60  -0.462   0.013   0.243
    1UNL    H27   61  -0.235  -0.090   0.154
    1UNL    H28   62  -0.387  -0.105  -0.053
   0.00000   0.00000   0.00000   0.00000   0.00000   0.00000   0.00000   0.00000   0.00000
Generated with MDTraj, t= 31.0
 62
    1UNL     C1    1  -0.187  -0.406  -0.068
    1UNL     C2    2  -0.053  -0.344  -0.096
    1UNL     C3    3   0.059  -0.420  -0.014
    1UNL     C4    4   0.186  -0.341  -0.044
    1UNL     O1    5   0.300  -0.392   0.030
    1UNL     O2    6   0.211  -0.351  -0.187
    1UNL     C5    7   0.107  -0.272  -0.248
    1UNL     O3    8  -0.014  -0.352  -0.237
    1UNL     C6    9   0.083  -0.150  -0.153
    1UNL     C7   10   0.113  -0.007  -0.195
    1UNL     O4   11   0.232   0.042  -0.130
    1UNL     C8   12   0.196   0.119  -0.022
    1UNL     O5   13   0.082   0.137   0.011
    1UNL     C9   14   0.304   0.191   0.047
    1UNL    C10   15   0.433   0.157   0.012
    1UNL    C11   16   0.541   0.231   0.058
    1UNL    C12   17   0.516   0.331   0.149
    1UNL    C13   18   0.387   0.359   0.186
    1UNL    C14   19   0.282   0.298   0.133
    1UNL    C15   20   0.157  -0.189  -0.016
    1UNL    C16   21   0.030  -0.150   0.056
    1UNL    C17   22  -0.047  -0.184  -0.076
    1UNL     O6   23  -0.168  -0.121  -0.118
    1UNL    C18   24  -0.184   0.010  -0.057
    1UNL     O7   25  -0.248   0.118  -0.133
    1UNL    C19   26  -0.268   0.248  -0.065
    1UNL    C20   27  -0.134   0.320  -0.036
    1UNL     O8   28  -0.145   0.418   0.057
    1UNL    C21   29  -0.344   0.219   0.071
    1UNL     O9   30  -0.390   0.333   0.139
    1UNL    C22   31  -0.258   0.131   0.163
    1UNL    O10   32  -0.331   0.103   0.291
    1UNL    C23   33  -0.257  -0.007   0.080
    1UNL    O11   34  -0.387  -0.049   0.058
    1UNL     H1   35  -0.264  -0.367  -0.141
    1UNL     H2   36  -0.182  -0.516  -0.071
    1UNL     H3   37  -0.216  -0.370   0.028
    1UNL     H4   38   0.029  -0.415   0.096
    1UNL     H5   39   0.072  -0.520  -0.047
    1UNL     H6   40   0.374  -0.408  -0.038
    1UNL     H7   41   0.136  -0.258  -0.361
    1UNL     H8   42   0.036   0.067  -0.161
    1UNL     H9   43   0.115  -0.005  -0.299
    1UNL    H10   44   0.442   0.064  -0.042
    1UNL    H11   45   0.644   0.183   0.048
    1UNL    H12   46   0.610   0.385   0.187
    1UNL    H13   47   0.366   0.450   0.250
    1UNL    H14   48   0.179   0.339   0.152
    1UNL    H15   49   0.251  -0.134   0.013
    1UNL    H16   50   0.008  -0.214   0.145
    1UNL    H17   51   0.046  -0.046   0.093
    1UNL    H18   52  -0.078   0.050  -0.037
    1UNL    H19   53  -0.325   0.314  -0.131
    1UNL    H20   54  -0.074   0.360  -0.123
    1UNL    H21   55  -0.073   0.245   0.016
    1UNL    H22   56  -0.238   0.413   0.100
    1UNL    H23   57  -0.426   0.165   0.031
    1UNL    H24   58  -0.429   0.311   0.232
    1UNL    H25   59  -0.160   0.178   0.192
    1UNL    H26   60  -0.392   0.032   0.272
    1UNL    H27   61  -0.218  -0.085   0.152
    1UNL    H28   62  -0.398  -0.088  -0.031
   0.00000   0.00000   0.00000   0.00000   0.00000   0.00000   0.00000   0.00000   0.00000
Generated with MDTraj, t= 32.0
 62
    1UNL     C1    1  -0.210  -0.381  -0.086
    1UNL     C2    2  -0.066  -0.342  -0.110
    1UNL     C3    3   0.041  -0.432  -0.035
    1UNL     C4    4   0.178  -0.366  -0.051
    1UNL     O1    5   0.277  -0.436   0.028
    1UNL     O2    6   0.206  -0.371  -0.196
    1UNL     C5    7   0.113  -0.278  -0.257
    1UNL     O3    8  -0.022  -0.344  -0.250
    1UNL     C6    9   0.092  -0.155  -0.148
    1UNL     C7   10   0.114   0.001  -0.187
    1UNL     O4   11   0.231   0.052  -0.134
    1UNL     C8   12   0.198   0.129  -0.022
    1UNL     O5   13   0.084   0.140   0.023
    1UNL     C9   14   0.310   0.209   0.028
    1UNL    C10   15   0.438   0.170   0.023
    1UNL    C11   16   0.539   0.237   0.094
    1UNL    C12   17   0.506   0.345   0.173
    1UNL    C13   18   0.372   0.376   0.188
    1UNL    C14   19   0.274   0.318   0.108
    1UNL    C15   20   0.169  -0.213  -0.026
    1UNL    C16   21   0.046  -0.169   0.061
    1UNL    C17   22  -0.042  -0.192  -0.068
    1UNL     O6   23  -0.159  -0.113  -0.093
    1UNL    C18   24  -0.166   0.020  -0.040
    1UNL     O7   25  -0.239   0.107  -0.121
    1UNL    C19   26  -0.260   0.232  -0.056
    1UNL    C20   27  -0.139   0.322  -0.049
    1UNL     O8   28  -0.169   0.450  -0.008
    1UNL    C21   29  -0.344   0.214   0.076
    1UNL     O9   30  -0.380   0.327   0.157
    1UNL    C22   31  -0.263   0.130   0.167
    1UNL    O10   32  -0.340   0.121   0.290
    1UNL    C23   33  -0.236  -0.006   0.100
    1UNL    O11   34  -0.348  -0.077   0.077
    1UNL     H1   35  -0.278  -0.314  -0.147
    1UNL     H2   36  -0.215  -0.482  -0.124
    1UNL     H3   37  -0.241  -0.375   0.018
    1UNL     H4   38   0.019  -0.445   0.077
    1UNL     H5   39   0.037  -0.522  -0.090
    1UNL     H6   40   0.372  -0.396   0.008
    1UNL     H7   41   0.143  -0.250  -0.367
    1UNL     H8   42   0.026   0.057  -0.152
    1UNL     H9   43   0.125   0.010  -0.289
    1UNL    H10   44   0.463   0.080  -0.032
    1UNL    H11   45   0.636   0.205   0.095
    1UNL    H12   46   0.576   0.387   0.234
    1UNL    H13   47   0.357   0.468   0.233
    1UNL    H14   48   0.182   0.368   0.100
    1UNL    H15   49   0.267  -0.160  -0.010
    1UNL    H16   50   0.021  -0.230   0.147
    1UNL    H17   51   0.046  -0.056   0.075
    1UNL    H18   52  -0.062   0.063  -0.038
    1UNL    H19   53  -0.325   0.286  -0.129
    1UNL    H20   54  -0.089   0.320  -0.151
    1UNL    H21   55  -0.066   0.285   0.025
    1UNL    H22   56  -0.250   0.439   0.048
    1UNL    H23   57  -0.431   0.153   0.052
    1UNL    H24   58  -0.377   0.298   0.250
    1UNL    H25   59  -0.170   0.184   0.193
    1UNL    H26   60  -0.385   0.034   0.303
    1UNL    H27   61  -0.180  -0.087   0.153
    1UNL    H28   62  -0.391  -0.034   0.004
   0.00000   0.00000   0.00000   0.00000   0.00000   0.00000   0.00000   0.00000   0.00000
Generated with MDTraj, t= 33.0
 62
    1UNL     C1    1  -0.209  -0.365  -0.123
    1UNL     C2    2  -0.063  -0.333  -0.123
    1UNL     C3    3   0.029  -0.429  -0.040
    1UNL     C4    4   0.171  -0.380  -0.054
    1UNL     O1    5   0.274  -0.457   0.020
    1UNL     O2    6   0.205  -0.383  -0.194
    1UNL     C5    7   0.118  -0.280  -0.254
    1UNL     O3    8  -0.012  -0.334  -0.257
    1UNL     C6    9   0.111  -0.159  -0.150
    1UNL     C7   10   0.154  -0.021  -0.194
    1UNL     O4   11   0.263   0.037  -0.130
    1UNL     C8   12   0.215   0.118  -0.026
    1UNL     O5   13   0.096   0.124  -0.002
    1UNL     C9   14   0.310   0.202   0.047
    1UNL    C10   15   0.441   0.166   0.048
    1UNL    C11   16   0.530   0.249   0.105
    1UNL    C12   17   0.495   0.359   0.174
    1UNL    C13   18   0.365   0.399   0.176
    1UNL    C14   19   0.268   0.317   0.114
    1UNL    C15   20   0.176  -0.223  -0.021
    1UNL    C16   21   0.048  -0.173   0.057
    1UNL    C17   22  -0.029  -0.179  -0.074
    1UNL     O6   23  -0.155  -0.101  -0.097
    1UNL    C18   24  -0.184   0.026  -0.035
    1UNL     O7   25  -0.285   0.106  -0.104
    1UNL    C19   26  -0.296   0.241  -0.046
    1UNL    C20   27  -0.168   0.317  -0.067
    1UNL     O8   28  -0.192   0.460  -0.074
    1UNL    C21   29  -0.346   0.234   0.103
    1UNL     O9   30  -0.337   0.357   0.175
    1UNL    C22   31  -0.272   0.128   0.189
    1UNL    O10   32  -0.345   0.106   0.305
    1UNL    C23   33  -0.240  -0.005   0.110
    1UNL    O11   34  -0.338  -0.092   0.108
    1UNL     H1   35  -0.267  -0.278  -0.158
    1UNL     H2   36  -0.227  -0.449  -0.187
    1UNL     H3   37  -0.244  -0.389  -0.018
    1UNL     H4   38  -0.002  -0.430   0.067
    1UNL     H5   39   0.028  -0.531  -0.080
    1UNL     H6   40   0.361  -0.454  -0.040
    1UNL     H7   41   0.152  -0.250  -0.362
    1UNL     H8   42   0.067   0.050  -0.175
    1UNL     H9   43   0.178  -0.036  -0.295
    1UNL    H10   44   0.469   0.071   0.005
    1UNL    H11   45   0.636   0.208   0.098
    1UNL    H12   46   0.570   0.428   0.223
    1UNL    H13   47   0.331   0.500   0.211
    1UNL    H14   48   0.171   0.365   0.092
    1UNL    H15   49   0.277  -0.183   0.014
    1UNL    H16   50   0.010  -0.235   0.135
    1UNL    H17   51   0.064  -0.071   0.101
    1UNL    H18   52  -0.100   0.081  -0.030
    1UNL    H19   53  -0.377   0.297  -0.102
    1UNL    H20   54  -0.133   0.302  -0.174
    1UNL    H21   55  -0.087   0.285   0.001
    1UNL    H22   56  -0.244   0.484   0.004
    1UNL    H23   57  -0.455   0.209   0.099
    1UNL    H24   58  -0.330   0.337   0.265
    1UNL    H25   59  -0.177   0.174   0.217
    1UNL    H26   60  -0.387   0.017   0.294
    1UNL    H27   61  -0.171  -0.058   0.176
    1UNL    H28   62  -0.364  -0.115   0.017
   0.00000   0.00000   0.00000   0.00000   0.00000   0.00000   0.00000   0.00000   0.00000
Generated with MDTraj, t= 34.0
 62
    1UNL     C1    1  -0.220  -0.366  -0.115
    1UNL     C2    2  -0.071  -0.332  -0.126
    1UNL     C3    3   0.017  -0.429  -0.035
    1UNL     C4    4   0.161  -0.370  -0.050
    1UNL     O1    5   0.259  -0.425   0.038
    1UNL     O2    6   0.194  -0.379  -0.195
    1UNL     C5    7   0.106  -0.282  -0.253
    1UNL     O3    8  -0.024  -0.335  -0.264
    1UNL     C6    9   0.100  -0.159  -0.150
    1UNL     C7   10   0.151  -0.024  -0.190
    1UNL     O4   11   0.254   0.025  -0.104
    1UNL     C8   12   0.212   0.123  -0.019
    1UNL     O5   13   0.094   0.137   0.004
    1UNL     C9   14   0.309   0.205   0.070
    1UNL    C10   15   0.441   0.168   0.059
    1UNL    C11   16   0.533   0.254   0.113
    1UNL    C12   17   0.493   0.369   0.174
    1UNL    C13   18   0.360   0.409   0.176
    1UNL    C14   19   0.267   0.320   0.123
    1UNL    C15   20   0.161  -0.213  -0.025
    1UNL    C16   21   0.032  -0.167   0.051
    1UNL    C17   22  -0.042  -0.185  -0.084
    1UNL     O6   23  -0.143  -0.096  -0.130
    1UNL    C18   24  -0.170   0.014  -0.046
    1UNL     O7   25  -0.276   0.095  -0.113
    1UNL    C19   26  -0.300   0.224  -0.055
    1UNL    C20   27  -0.183   0.313  -0.086
    1UNL     O8   28  -0.211   0.451  -0.060
    1UNL    C21   29  -0.328   0.215   0.105
    1UNL     O9   30  -0.327   0.347   0.157
    1UNL    C22   31  -0.221   0.122   0.186
    1UNL    O10   32  -0.265   0.084   0.315
    1UNL    C23   33  -0.219  -0.018   0.100
    1UNL    O11   34  -0.348  -0.067   0.096
    1UNL     H1   35  -0.270  -0.317  -0.196
    1UNL     H2   36  -0.245  -0.473  -0.122
    1UNL     H3   37  -0.267  -0.322  -0.022
    1UNL     H4   38  -0.019  -0.432   0.065
    1UNL     H5   39   0.009  -0.536  -0.074
    1UNL     H6   40   0.350  -0.388   0.001
    1UNL     H7   41   0.147  -0.259  -0.360
    1UNL     H8   42   0.063   0.048  -0.180
    1UNL     H9   43   0.186  -0.032  -0.290
    1UNL    H10   44   0.464   0.065   0.032
    1UNL    H11   45   0.634   0.226   0.120
    1UNL    H12   46   0.573   0.427   0.211
    1UNL    H13   47   0.337   0.509   0.205
    1UNL    H14   48   0.162   0.342   0.134
    1UNL    H15   49   0.258  -0.162   0.010
    1UNL    H16   50  -0.012  -0.236   0.121
    1UNL    H17   51   0.025  -0.069   0.098
    1UNL    H18   52  -0.082   0.077  -0.039
    1UNL    H19   53  -0.396   0.262  -0.102
    1UNL    H20   54  -0.148   0.292  -0.191
    1UNL    H21   55  -0.099   0.293  -0.020
    1UNL    H22   56  -0.265   0.458   0.025
    1UNL    H23   57  -0.433   0.177   0.122
    1UNL    H24   58  -0.334   0.342   0.257
    1UNL    H25   59  -0.125   0.169   0.200
    1UNL    H26   60  -0.319   0.005   0.301
    1UNL    H27   61  -0.165  -0.097   0.150
    1UNL    H28   62  -0.392  -0.050   0.004
   0.00000   0.00000   0.00000   0.00000   0.00000   0.00000   0.00000   0.00000   0.00000
Generated with MDTraj, t= 35.0
 62
    1UNL     C1    1  -0.216  -0.383  -0.105
    1UNL     C2    2  -0.068  -0.342  -0.125
    1UNL     C3    3   0.019  -0.428  -0.036
    1UNL     C4    4   0.161  -0.374  -0.037
    1UNL     O1    5   0.257  -0.440   0.054
    1UNL     O2    6   0.204  -0.379  -0.178
    1UNL     C5    7   0.121  -0.287  -0.243
    1UNL     O3    8  -0.014  -0.344  -0.259
    1UNL     C6    9   0.106  -0.161  -0.145
    1UNL     C7   10   0.132  -0.017  -0.188
    1UNL     O4   11   0.230   0.049  -0.112
    1UNL     C8   12   0.180   0.140  -0.022
    1UNL     O5   13   0.062   0.150   0.005
    1UNL     C9   14   0.288   0.220   0.041
    1UNL    C10   15   0.422   0.175   0.038
    1UNL    C11   16   0.520   0.235   0.113
    1UNL    C12   17   0.483   0.348   0.184
    1UNL    C13   18   0.354   0.395   0.189
    1UNL    C14   19   0.255   0.330   0.121
    1UNL    C15   20   0.160  -0.219  -0.009
    1UNL    C16   21   0.022  -0.167   0.053
    1UNL    C17   22  -0.041  -0.186  -0.085
    1UNL     O6   23  -0.134  -0.093  -0.145
    1UNL    C18   24  -0.174   0.014  -0.061
    1UNL     O7   25  -0.273   0.107  -0.126
    1UNL    C19   26  -0.288   0.227  -0.052
    1UNL    C20   27  -0.179   0.335  -0.082
    1UNL     O8   28  -0.201   0.460  -0.025
    1UNL    C21   29  -0.317   0.208   0.103
    1UNL     O9   30  -0.307   0.334   0.164
    1UNL    C22   31  -0.209   0.115   0.157
    1UNL    O10   32  -0.203   0.092   0.297
    1UNL    C23   33  -0.221  -0.023   0.083
    1UNL    O11   34  -0.358  -0.062   0.088
    1UNL     H1   35  -0.282  -0.322  -0.163
    1UNL     H2   36  -0.225  -0.487  -0.146
    1UNL     H3   37  -0.248  -0.385   0.002
    1UNL     H4   38  -0.021  -0.439   0.061
    1UNL     H5   39   0.024  -0.532  -0.087
    1UNL     H6   40   0.316  -0.497  -0.011
    1UNL     H7   41   0.166  -0.264  -0.349
    1UNL     H8   42   0.035   0.048  -0.183
    1UNL     H9   43   0.172  -0.015  -0.287
    1UNL    H10   44   0.450   0.087  -0.015
    1UNL    H11   45   0.610   0.175   0.129
    1UNL    H12   46   0.568   0.401   0.225
    1UNL    H13   47   0.326   0.471   0.261
    1UNL    H14   48   0.153   0.361   0.121
    1UNL    H15   49   0.249  -0.154   0.027
    1UNL    H16   50   0.001  -0.231   0.139
    1UNL    H17   51   0.028  -0.064   0.071
    1UNL    H18   52  -0.076   0.078  -0.044
    1UNL    H19   53  -0.388   0.266  -0.084
    1UNL    H20   54  -0.156   0.354  -0.188
    1UNL    H21   55  -0.089   0.299  -0.034
    1UNL    H22   56  -0.232   0.453   0.066
    1UNL    H23   57  -0.426   0.172   0.124
    1UNL    H24   58  -0.327   0.331   0.264
    1UNL    H25   59  -0.115   0.162   0.140
    1UNL    H26   60  -0.261   0.014   0.320
    1UNL    H27   61  -0.160  -0.104   0.118
    1UNL    H28   62  -0.397  -0.026   0.010
   0.00000   0.00000   0.00000   0.00000   0.00000   0.00000   0.00000   0.00000   0.00000
Generated with MDTraj, t= 36.0
 62
    1UNL     C1    1  -0.205  -0.394  -0.125
    1UNL     C2    2  -0.059  -0.337  -0.127
    1UNL     C3    3   0.032  -0.419  -0.029
    1UNL     C4    4   0.170  -0.355  -0.033
    1UNL     O1    5   0.262  -0.415   0.058
    1UNL     O2    6   0.214  -0.378  -0.169
    1UNL     C5    7   0.128  -0.292  -0.248
    1UNL     O3    8   0.001  -0.358  -0.259
    1UNL     C6    9   0.100  -0.158  -0.162
    1UNL     C7   10   0.139  -0.023  -0.216
    1UNL     O4   11   0.241   0.038  -0.134
    1UNL     C8   12   0.188   0.132  -0.049
    1UNL     O5   13   0.072   0.171  -0.054
    1UNL     C9   14   0.282   0.197   0.037
    1UNL    C10   15   0.418   0.168   0.034
    1UNL    C11   16   0.509   0.233   0.116
    1UNL    C12   17   0.468   0.348   0.187
    1UNL    C13   18   0.331   0.369   0.204
    1UNL    C14   19   0.239   0.296   0.130
    1UNL    C15   20   0.153  -0.203  -0.020
    1UNL    C16   21   0.026  -0.150   0.040
    1UNL    C17   22  -0.044  -0.186  -0.096
    1UNL     O6   23  -0.156  -0.101  -0.120
    1UNL    C18   24  -0.178   0.011  -0.037
    1UNL     O7   25  -0.267   0.107  -0.106
    1UNL    C19   26  -0.275   0.231  -0.039
    1UNL    C20   27  -0.159   0.330  -0.067
    1UNL     O8   28  -0.174   0.463  -0.051
    1UNL    C21   29  -0.309   0.222   0.113
    1UNL     O9   30  -0.285   0.343   0.189
    1UNL    C22   31  -0.227   0.114   0.177
    1UNL    O10   32  -0.265   0.090   0.316
    1UNL    C23   33  -0.233  -0.018   0.099
    1UNL    O11   34  -0.367  -0.061   0.098
    1UNL     H1   35  -0.270  -0.328  -0.183
    1UNL     H2   36  -0.212  -0.497  -0.171
    1UNL     H3   37  -0.239  -0.395  -0.022
    1UNL     H4   38  -0.030  -0.422   0.062
    1UNL     H5   39   0.043  -0.525  -0.060
    1UNL     H6   40   0.332  -0.466   0.004
    1UNL     H7   41   0.172  -0.269  -0.354
    1UNL     H8   42   0.046   0.045  -0.212
    1UNL     H9   43   0.178  -0.031  -0.318
    1UNL    H10   44   0.458   0.095  -0.037
    1UNL    H11   45   0.617   0.219   0.110
    1UNL    H12   46   0.539   0.403   0.256
    1UNL    H13   47   0.299   0.452   0.267
    1UNL    H14   48   0.130   0.321   0.128
    1UNL    H15   49   0.249  -0.148   0.012
    1UNL    H16   50  -0.012  -0.203   0.126
    1UNL    H17   51   0.032  -0.049   0.060
    1UNL    H18   52  -0.089   0.061  -0.019
    1UNL    H19   53  -0.365   0.269  -0.089
    1UNL    H20   54  -0.146   0.321  -0.175
    1UNL    H21   55  -0.065   0.305  -0.020
    1UNL    H22   56  -0.210   0.485   0.037
    1UNL    H23   57  -0.424   0.199   0.121
    1UNL    H24   58  -0.329   0.342   0.271
    1UNL    H25   59  -0.130   0.156   0.183
    1UNL    H26   60  -0.354   0.042   0.318
    1UNL    H27   61  -0.174  -0.088   0.159
    1UNL    H28   62  -0.403  -0.043   0.004
   0.00000   0.00000   0.00000   0.00000   0.00000   0.00000   0.00000   0.00000   0.00000
Generated with MDTraj, t= 37.0
 62
    1UNL     C1    1  -0.209  -0.370  -0.086
    1UNL     C2    2  -0.062  -0.338  -0.112
    1UNL     C3    3   0.039  -0.418  -0.019
    1UNL     C4    4   0.181  -0.352  -0.035
    1UNL     O1    5   0.285  -0.409   0.036
    1UNL     O2    6   0.213  -0.365  -0.178
    1UNL     C5    7   0.115  -0.284  -0.251
    1UNL     O3    8  -0.013  -0.347  -0.248
    1UNL     C6    9   0.093  -0.155  -0.159
    1UNL     C7   10   0.139  -0.024  -0.225
    1UNL     O4   11   0.252   0.036  -0.156
    1UNL     C8   12   0.204   0.126  -0.069
    1UNL     O5   13   0.091   0.157  -0.044
    1UNL     C9   14   0.291   0.206   0.017
    1UNL    C10   15   0.431   0.186   0.016
    1UNL    C11   16   0.510   0.242   0.115
    1UNL    C12   17   0.455   0.314   0.222
    1UNL    C13   18   0.317   0.340   0.217
    1UNL    C14   19   0.239   0.282   0.122
    1UNL    C15   20   0.172  -0.197  -0.025
    1UNL    C16   21   0.036  -0.149   0.047
    1UNL    C17   22  -0.041  -0.179  -0.074
    1UNL     O6   23  -0.163  -0.113  -0.109
    1UNL    C18   24  -0.178   0.014  -0.040
    1UNL     O7   25  -0.281   0.108  -0.102
    1UNL    C19   26  -0.285   0.233  -0.045
    1UNL    C20   27  -0.157   0.312  -0.080
    1UNL     O8   28  -0.158   0.446  -0.047
    1UNL    C21   29  -0.318   0.229   0.111
    1UNL     O9   30  -0.284   0.343   0.190
    1UNL    C22   31  -0.243   0.118   0.181
    1UNL    O10   32  -0.311   0.095   0.302
    1UNL    C23   33  -0.228  -0.010   0.103
    1UNL    O11   34  -0.359  -0.062   0.089
    1UNL     H1   35  -0.266  -0.319  -0.170
    1UNL     H2   36  -0.220  -0.477  -0.107
    1UNL     H3   37  -0.248  -0.342   0.010
    1UNL     H4   38   0.005  -0.414   0.089
    1UNL     H5   39   0.044  -0.521  -0.045
    1UNL     H6   40   0.356  -0.431  -0.024
    1UNL     H7   41   0.160  -0.264  -0.358
    1UNL     H8   42   0.053   0.054  -0.227
    1UNL     H9   43   0.171  -0.042  -0.331
    1UNL    H10   44   0.470   0.142  -0.071
    1UNL    H11   45   0.616   0.240   0.110
    1UNL    H12   46   0.505   0.343   0.306
    1UNL    H13   47   0.270   0.397   0.292
    1UNL    H14   48   0.135   0.292   0.121
    1UNL    H15   49   0.269  -0.136  -0.009
    1UNL    H16   50   0.004  -0.196   0.138
    1UNL    H17   51   0.045  -0.049   0.079
    1UNL    H18   52  -0.088   0.058  -0.040
    1UNL    H19   53  -0.363   0.285  -0.100
    1UNL    H20   54  -0.126   0.309  -0.184
    1UNL    H21   55  -0.074   0.266  -0.030
    1UNL    H22   56  -0.179   0.453   0.052
    1UNL    H23   57  -0.432   0.202   0.114
    1UNL    H24   58  -0.326   0.337   0.277
    1UNL    H25   59  -0.145   0.154   0.202
    1UNL    H26   60  -0.398   0.057   0.283
    1UNL    H27   61  -0.171  -0.091   0.148
    1UNL    H28   62  -0.381  -0.057  -0.006
   0.00000   0.00000   0.00000   0.00000   0.00000   0.00000   0.00000   0.00000   0.00000
Generated with MDTraj, t= 38.0
 62
    1UNL     C1    1  -0.196  -0.355  -0.038
    1UNL     C2    2  -0.057  -0.324  -0.086
    1UNL     C3    3   0.049  -0.413  -0.012
    1UNL     C4    4   0.189  -0.349  -0.049
    1UNL     O1    5   0.297  -0.407   0.034
    1UNL     O2    6   0.203  -0.380  -0.191
    1UNL     C5    7   0.101  -0.293  -0.252
    1UNL     O3    8  -0.036  -0.349  -0.227
    1UNL     C6    9   0.104  -0.153  -0.166
    1UNL     C7   10   0.125  -0.013  -0.221
    1UNL     O4   11   0.224   0.060  -0.152
    1UNL     C8   12   0.179   0.134  -0.051
    1UNL     O5   13   0.068   0.150  -0.014
    1UNL     C9   14   0.284   0.180   0.045
    1UNL    C10   15   0.421   0.170   0.016
    1UNL    C11   16   0.518   0.234   0.093
    1UNL    C12   17   0.478   0.302   0.209
    1UNL    C13   18   0.342   0.322   0.228
    1UNL    C14   19   0.251   0.262   0.148
    1UNL    C15   20   0.182  -0.193  -0.040
    1UNL    C16   21   0.072  -0.139   0.050
    1UNL    C17   22  -0.026  -0.172  -0.074
    1UNL     O6   23  -0.145  -0.100  -0.120
    1UNL    C18   24  -0.180   0.024  -0.059
    1UNL     O7   25  -0.269   0.115  -0.127
    1UNL    C19   26  -0.286   0.237  -0.061
    1UNL    C20   27  -0.149   0.317  -0.060
    1UNL     O8   28  -0.163   0.457  -0.039
    1UNL    C21   29  -0.337   0.219   0.090
    1UNL     O9   30  -0.333   0.334   0.170
    1UNL    C22   31  -0.240   0.119   0.165
    1UNL    O10   32  -0.295   0.097   0.289
    1UNL    C23   33  -0.230  -0.012   0.080
    1UNL    O11   34  -0.359  -0.072   0.080
    1UNL     H1   35  -0.267  -0.278  -0.082
    1UNL     H2   36  -0.234  -0.453  -0.059
    1UNL     H3   37  -0.193  -0.340   0.070
    1UNL     H4   38   0.028  -0.409   0.101
    1UNL     H5   39   0.041  -0.512  -0.043
    1UNL     H6   40   0.352  -0.453  -0.022
    1UNL     H7   41   0.120  -0.283  -0.366
    1UNL     H8   42   0.023   0.044  -0.218
    1UNL     H9   43   0.161  -0.015  -0.327
    1UNL    H10   44   0.445   0.118  -0.079
    1UNL    H11   45   0.626   0.233   0.065
    1UNL    H12   46   0.549   0.362   0.276
    1UNL    H13   47   0.306   0.370   0.322
    1UNL    H14   48   0.142   0.258   0.172
    1UNL    H15   49   0.283  -0.141  -0.024
    1UNL    H16   50   0.068  -0.203   0.132
    1UNL    H17   51   0.077  -0.031   0.074
    1UNL    H18   52  -0.080   0.085  -0.045
    1UNL    H19   53  -0.345   0.300  -0.128
    1UNL    H20   54  -0.089   0.299  -0.148
    1UNL    H21   55  -0.077   0.285   0.016
    1UNL    H22   56  -0.227   0.461   0.031
    1UNL    H23   57  -0.448   0.185   0.083
    1UNL    H24   58  -0.362   0.308   0.265
    1UNL    H25   59  -0.149   0.173   0.193
    1UNL    H26   60  -0.378   0.045   0.273
    1UNL    H27   61  -0.175  -0.086   0.136
    1UNL    H28   62  -0.406  -0.046   0.001
   0.00000   0.00000   0.00000   0.00000   0.00000   0.00000   0.00000   0.00000   0.00000
Generated with MDTraj, t= 39.0
 62
    1UNL     C1    1  -0.195  -0.398  -0.061
    1UNL     C2    2  -0.059  -0.337  -0.085
    1UNL     C3    3   0.053  -0.419  -0.009
    1UNL     C4    4   0.185  -0.350  -0.048
    1UNL     O1    5   0.302  -0.386   0.039
    1UNL     O2    6   0.201  -0.362  -0.192
    1UNL     C5    7   0.098  -0.280  -0.245
    1UNL     O3    8  -0.031  -0.340  -0.231
    1UNL     C6    9   0.091  -0.148  -0.153
    1UNL     C7   10   0.129  -0.008  -0.213
    1UNL     O4   11   0.236   0.051  -0.140
    1UNL     C8   12   0.197   0.134  -0.034
    1UNL     O5   13   0.081   0.154  -0.013
    1UNL     C9   14   0.309   0.182   0.043
    1UNL    C10   15   0.440   0.166   0.000
    1UNL    C11   16   0.545   0.218   0.074
    1UNL    C12   17   0.516   0.286   0.196
    1UNL    C13   18   0.383   0.303   0.236
    1UNL    C14   19   0.281   0.257   0.157
    1UNL    C15   20   0.175  -0.192  -0.031
    1UNL    C16   21   0.051  -0.144   0.062
    1UNL    C17   22  -0.038  -0.175  -0.061
    1UNL     O6   23  -0.151  -0.104  -0.112
    1UNL    C18   24  -0.171   0.028  -0.054
    1UNL     O7   25  -0.258   0.115  -0.132
    1UNL    C19   26  -0.297   0.237  -0.067
    1UNL    C20   27  -0.183   0.342  -0.081
    1UNL     O8   28  -0.207   0.469  -0.019
    1UNL    C21   29  -0.348   0.217   0.083
    1UNL     O9   30  -0.376   0.336   0.146
    1UNL    C22   31  -0.256   0.130   0.165
    1UNL    O10   32  -0.300   0.102   0.290
    1UNL    C23   33  -0.238  -0.004   0.085
    1UNL    O11   34  -0.356  -0.077   0.078
    1UNL     H1   35  -0.266  -0.357  -0.134
    1UNL     H2   36  -0.196  -0.505  -0.072
    1UNL     H3   37  -0.232  -0.370   0.041
    1UNL     H4   38   0.042  -0.423   0.102
    1UNL     H5   39   0.046  -0.519  -0.048
    1UNL     H6   40   0.375  -0.407  -0.010
    1UNL     H7   41   0.112  -0.263  -0.359
    1UNL     H8   42   0.046   0.071  -0.218
    1UNL     H9   43   0.170  -0.021  -0.317
    1UNL    H10   44   0.461   0.129  -0.095
    1UNL    H11   45   0.641   0.226   0.036
    1UNL    H12   46   0.589   0.327   0.260
    1UNL    H13   47   0.357   0.333   0.333
    1UNL    H14   48   0.179   0.265   0.183
    1UNL    H15   49   0.280  -0.142  -0.027
    1UNL    H16   50   0.034  -0.205   0.143
    1UNL    H17   51   0.059  -0.036   0.088
    1UNL    H18   52  -0.081   0.071  -0.053
    1UNL    H19   53  -0.382   0.279  -0.127
    1UNL    H20   54  -0.159   0.368  -0.184
    1UNL    H21   55  -0.086   0.306  -0.047
    1UNL    H22   56  -0.249   0.451   0.071
    1UNL    H23   57  -0.447   0.159   0.079
    1UNL    H24   58  -0.426   0.309   0.232
    1UNL    H25   59  -0.155   0.175   0.174
    1UNL    H26   60  -0.357   0.017   0.276
    1UNL    H27   61  -0.174  -0.075   0.133
    1UNL    H28   62  -0.400  -0.044  -0.008
   0.00000   0.00000   0.00000   0.00000   0.00000   0.00000   0.00000   0.00000   0.00000
Generated with MDTraj, t= 40.0
 62
    1UNL     C1    1  -0.193  -0.390  -0.125
    1UNL     C2    2  -0.055  -0.331  -0.117
    1UNL     C3    3   0.048  -0.409  -0.025
    1UNL     C4    4   0.186  -0.340  -0.029
    1UNL     O1    5   0.284  -0.389   0.058
    1UNL     O2    6   0.220  -0.350  -0.169
    1UNL     C5    7   0.122  -0.267  -0.238
    1UNL     O3    8   0.002  -0.330  -0.249
    1UNL     C6    9   0.098  -0.140  -0.138
    1UNL     C7   10   0.127  -0.001  -0.201
    1UNL     O4   11   0.245   0.059  -0.159
    1UNL     C8   12   0.222   0.139  -0.043
    1UNL     O5   13   0.110   0.170  -0.005
    1UNL     C9   14   0.343   0.196   0.028
    1UNL    C10   15   0.467   0.157  -0.016
    1UNL    C11   16   0.574   0.201   0.061
    1UNL    C12   17   0.551   0.271   0.180
    1UNL    C13   18   0.423   0.288   0.233
    1UNL    C14   19   0.317   0.253   0.152
    1UNL    C15   20   0.163  -0.184  -0.005
    1UNL    C16   21   0.030  -0.155   0.066
    1UNL    C17   22  -0.041  -0.177  -0.073
    1UNL     O6   23  -0.161  -0.106  -0.109
    1UNL    C18   24  -0.196   0.015  -0.038
    1UNL     O7   25  -0.285   0.095  -0.113
    1UNL    C19   26  -0.315   0.227  -0.059
    1UNL    C20   27  -0.194   0.315  -0.064
    1UNL     O8   28  -0.225   0.450  -0.046
    1UNL    C21   29  -0.378   0.219   0.081
    1UNL     O9   30  -0.408   0.347   0.126
    1UNL    C22   31  -0.287   0.137   0.178
    1UNL    O10   32  -0.331   0.121   0.315
    1UNL    C23   33  -0.254  -0.004   0.104
    1UNL    O11   34  -0.368  -0.077   0.102
    1UNL     H1   35  -0.239  -0.344  -0.210
    1UNL     H2   36  -0.185  -0.497  -0.149
    1UNL     H3   37  -0.258  -0.373  -0.035
    1UNL     H4   38   0.016  -0.418   0.075
    1UNL     H5   39   0.052  -0.512  -0.067
    1UNL     H6   40   0.330  -0.461   0.021
    1UNL     H7   41   0.165  -0.244  -0.343
    1UNL     H8   42   0.041   0.070  -0.189
    1UNL     H9   43   0.140  -0.019  -0.311
    1UNL    H10   44   0.475   0.120  -0.121
    1UNL    H11   45   0.675   0.194   0.013
    1UNL    H12   46   0.635   0.290   0.242
    1UNL    H13   47   0.398   0.317   0.337
    1UNL    H14   48   0.210   0.262   0.180
    1UNL    H15   49   0.256  -0.136   0.044
    1UNL    H16   50  -0.004  -0.213   0.148
    1UNL    H17   51   0.027  -0.053   0.106
    1UNL    H18   52  -0.107   0.071  -0.035
    1UNL    H19   53  -0.398   0.259  -0.131
    1UNL    H20   54  -0.157   0.308  -0.167
    1UNL    H21   55  -0.117   0.279   0.004
    1UNL    H22   56  -0.308   0.461   0.010
    1UNL    H23   57  -0.475   0.165   0.074
    1UNL    H24   58  -0.443   0.335   0.212
    1UNL    H25   59  -0.198   0.204   0.198
    1UNL    H26   60  -0.362   0.030   0.326
    1UNL    H27   61  -0.197  -0.058   0.176
    1UNL    H28   62  -0.371  -0.126   0.014
   0.00000   0.00000   0.00000   0.00000   0.00000   0.00000   0.00000   0.00000   0.00000
Generated with MDTraj, t= 41.0
 62
    1UNL     C1    1  -0.193  -0.378  -0.121
    1UNL     C2    2  -0.048  -0.331  -0.121
    1UNL     C3    3   0.047  -0.406  -0.026
    1UNL     C4    4   0.185  -0.326  -0.021
    1UNL     O1    5   0.276  -0.383   0.076
    1UNL     O2    6   0.235  -0.329  -0.154
    1UNL     C5    7   0.138  -0.242  -0.228
    1UNL     O3    8   0.019  -0.324  -0.252
    1UNL     C6    9   0.102  -0.131  -0.137
    1UNL     C7   10   0.123   0.014  -0.193
    1UNL     O4   11   0.236   0.076  -0.147
    1UNL     C8   12   0.216   0.140  -0.023
    1UNL     O5   13   0.113   0.150   0.042
    1UNL     C9   14   0.349   0.184   0.040
    1UNL    C10   15   0.462   0.138  -0.022
    1UNL    C11   16   0.583   0.180   0.030
    1UNL    C12   17   0.585   0.256   0.144
    1UNL    C13   18   0.465   0.288   0.211
    1UNL    C14   19   0.345   0.250   0.154
    1UNL    C15   20   0.151  -0.178   0.009
    1UNL    C16   21   0.014  -0.146   0.064
    1UNL    C17   22  -0.040  -0.179  -0.081
    1UNL     O6   23  -0.167  -0.102  -0.117
    1UNL    C18   24  -0.204   0.018  -0.043
    1UNL     O7   25  -0.298   0.090  -0.121
    1UNL    C19   26  -0.317   0.222  -0.069
    1UNL    C20   27  -0.198   0.318  -0.079
    1UNL     O8   28  -0.244   0.444  -0.053
    1UNL    C21   29  -0.373   0.214   0.077
    1UNL     O9   30  -0.398   0.340   0.138
    1UNL    C22   31  -0.294   0.131   0.175
    1UNL    O10   32  -0.374   0.107   0.293
    1UNL    C23   33  -0.262  -0.004   0.105
    1UNL    O11   34  -0.377  -0.089   0.104
    1UNL     H1   35  -0.254  -0.302  -0.164
    1UNL     H2   36  -0.199  -0.468  -0.187
    1UNL     H3   37  -0.231  -0.401  -0.018
    1UNL     H4   38   0.002  -0.421   0.066
    1UNL     H5   39   0.071  -0.507  -0.071
    1UNL     H6   40   0.326  -0.453   0.033
    1UNL     H7   41   0.179  -0.209  -0.330
    1UNL     H8   42   0.042   0.082  -0.160
    1UNL     H9   43   0.116   0.006  -0.303
    1UNL    H10   44   0.451   0.086  -0.112
    1UNL    H11   45   0.666   0.159  -0.031
    1UNL    H12   46   0.689   0.286   0.184
    1UNL    H13   47   0.468   0.334   0.306
    1UNL    H14   48   0.255   0.249   0.209
    1UNL    H15   49   0.243  -0.117   0.042
    1UNL    H16   50  -0.027  -0.210   0.144
    1UNL    H17   51   0.007  -0.042   0.078
    1UNL    H18   52  -0.108   0.071  -0.047
    1UNL    H19   53  -0.406   0.255  -0.128
    1UNL    H20   54  -0.158   0.307  -0.182
    1UNL    H21   55  -0.127   0.293   0.001
    1UNL    H22   56  -0.291   0.453   0.031
    1UNL    H23   57  -0.471   0.167   0.071
    1UNL    H24   58  -0.399   0.329   0.237
    1UNL    H25   59  -0.202   0.194   0.202
    1UNL    H26   60  -0.387   0.012   0.299
    1UNL    H27   61  -0.190  -0.061   0.158
    1UNL    H28   62  -0.379  -0.114   0.011
   0.00000   0.00000   0.00000   0.00000   0.00000   0.00000   0.00000   0.00000   0.00000
Generated with MDTraj, t= 42.0
 62
    1UNL     C1    1  -0.185  -0.392  -0.085
    1UNL     C2    2  -0.047  -0.329  -0.101
    1UNL     C3    3   0.062  -0.403  -0.019
    1UNL     C4    4   0.189  -0.311  -0.021
    1UNL     O1    5   0.290  -0.358   0.068
    1UNL     O2    6   0.230  -0.306  -0.156
    1UNL     C5    7   0.130  -0.240  -0.225
    1UNL     O3    8   0.011  -0.326  -0.230
    1UNL     C6    9   0.076  -0.120  -0.125
    1UNL     C7   10   0.107   0.026  -0.170
    1UNL     O4   11   0.228   0.077  -0.137
    1UNL     C8   12   0.223   0.129  -0.002
    1UNL     O5   13   0.131   0.129   0.081
    1UNL     C9   14   0.355   0.166   0.039
    1UNL    C10   15   0.468   0.130  -0.029
    1UNL    C11   16   0.592   0.171   0.013
    1UNL    C12   17   0.602   0.246   0.126
    1UNL    C13   18   0.487   0.293   0.191
    1UNL    C14   19   0.363   0.246   0.150
    1UNL    C15   20   0.144  -0.159   0.008
    1UNL    C16   21  -0.000  -0.141   0.076
    1UNL    C17   22  -0.058  -0.169  -0.069
    1UNL     O6   23  -0.177  -0.101  -0.120
    1UNL    C18   24  -0.203   0.017  -0.055
    1UNL     O7   25  -0.281   0.103  -0.132
    1UNL    C19   26  -0.317   0.227  -0.068
    1UNL    C20   27  -0.194   0.328  -0.082
    1UNL     O8   28  -0.246   0.454  -0.050
    1UNL    C21   29  -0.379   0.204   0.078
    1UNL     O9   30  -0.399   0.324   0.155
    1UNL    C22   31  -0.292   0.110   0.161
    1UNL    O10   32  -0.374   0.084   0.280
    1UNL    C23   33  -0.276  -0.020   0.074
    1UNL    O11   34  -0.399  -0.082   0.034
    1UNL     H1   35  -0.262  -0.369  -0.160
    1UNL     H2   36  -0.154  -0.500  -0.093
    1UNL     H3   37  -0.221  -0.377   0.015
    1UNL     H4   38   0.031  -0.429   0.080
    1UNL     H5   39   0.089  -0.495  -0.075
    1UNL     H6   40   0.327  -0.435   0.019
    1UNL     H7   41   0.155  -0.208  -0.332
    1UNL     H8   42   0.034   0.100  -0.130
    1UNL     H9   43   0.103   0.036  -0.279
    1UNL    H10   44   0.452   0.073  -0.122
    1UNL    H11   45   0.675   0.147  -0.055
    1UNL    H12   46   0.689   0.292   0.146
    1UNL    H13   47   0.492   0.342   0.290
    1UNL    H14   48   0.271   0.264   0.210
    1UNL    H15   49   0.215  -0.078   0.051
    1UNL    H16   50  -0.029  -0.217   0.155
    1UNL    H17   51   0.002  -0.041   0.107
    1UNL    H18   52  -0.099   0.068  -0.039
    1UNL    H19   53  -0.402   0.271  -0.123
    1UNL    H20   54  -0.161   0.337  -0.190
    1UNL    H21   55  -0.117   0.303  -0.008
    1UNL    H22   56  -0.329   0.450   0.011
    1UNL    H23   57  -0.469   0.148   0.070
    1UNL    H24   58  -0.401   0.299   0.256
    1UNL    H25   59  -0.190   0.148   0.197
    1UNL    H26   60  -0.423  -0.003   0.262
    1UNL    H27   61  -0.228  -0.094   0.138
    1UNL    H28   62  -0.389  -0.114  -0.057
   0.00000   0.00000   0.00000   0.00000   0.00000   0.00000   0.00000   0.00000   0.00000
Generated with MDTraj, t= 43.0
 62
    1UNL     C1    1  -0.178  -0.401  -0.107
    1UNL     C2    2  -0.040  -0.331  -0.095
    1UNL     C3    3   0.064  -0.399   0.004
    1UNL     C4    4   0.197  -0.313  -0.012
    1UNL     O1    5   0.299  -0.359   0.079
    1UNL     O2    6   0.237  -0.311  -0.151
    1UNL     C5    7   0.131  -0.242  -0.219
    1UNL     O3    8   0.018  -0.331  -0.228
    1UNL     C6    9   0.089  -0.119  -0.130
    1UNL     C7   10   0.110   0.022  -0.177
    1UNL     O4   11   0.232   0.075  -0.147
    1UNL     C8   12   0.238   0.129  -0.022
    1UNL     O5   13   0.143   0.153   0.052
    1UNL     C9   14   0.371   0.165   0.025
    1UNL    C10   15   0.482   0.134  -0.043
    1UNL    C11   16   0.605   0.168   0.009
    1UNL    C12   17   0.612   0.250   0.122
    1UNL    C13   18   0.496   0.288   0.186
    1UNL    C14   19   0.374   0.248   0.138
    1UNL    C15   20   0.152  -0.156   0.014
    1UNL    C16   21   0.016  -0.132   0.073
    1UNL    C17   22  -0.047  -0.175  -0.063
    1UNL     O6   23  -0.173  -0.111  -0.104
    1UNL    C18   24  -0.219   0.008  -0.044
    1UNL     O7   25  -0.290   0.105  -0.127
    1UNL    C19   26  -0.318   0.233  -0.061
    1UNL    C20   27  -0.192   0.318  -0.044
    1UNL     O8   28  -0.225   0.453  -0.009
    1UNL    C21   29  -0.398   0.217   0.071
    1UNL     O9   30  -0.412   0.333   0.153
    1UNL    C22   31  -0.338   0.099   0.152
    1UNL    O10   32  -0.406   0.073   0.278
    1UNL    C23   33  -0.319  -0.024   0.070
    1UNL    O11   34  -0.440  -0.069   0.011
    1UNL     H1   35  -0.238  -0.333  -0.174
    1UNL     H2   36  -0.175  -0.499  -0.159
    1UNL     H3   37  -0.235  -0.408  -0.017
    1UNL     H4   38   0.018  -0.413   0.106
    1UNL     H5   39   0.082  -0.499  -0.031
    1UNL     H6   40   0.349  -0.440   0.041
    1UNL     H7   41   0.176  -0.214  -0.320
    1UNL     H8   42   0.037   0.089  -0.129
    1UNL     H9   43   0.085   0.030  -0.286
    1UNL    H10   44   0.479   0.085  -0.139
    1UNL    H11   45   0.695   0.155  -0.044
    1UNL    H12   46   0.713   0.280   0.165
    1UNL    H13   47   0.506   0.344   0.276
    1UNL    H14   48   0.289   0.271   0.196
    1UNL    H15   49   0.246  -0.096   0.043
    1UNL    H16   50  -0.032  -0.202   0.147
    1UNL    H17   51   0.006  -0.034   0.113
    1UNL    H18   52  -0.116   0.063  -0.019
    1UNL    H19   53  -0.381   0.290  -0.127
    1UNL    H20   54  -0.136   0.318  -0.143
    1UNL    H21   55  -0.130   0.283   0.040
    1UNL    H22   56  -0.306   0.450   0.039
    1UNL    H23   57  -0.494   0.196   0.033
    1UNL    H24   58  -0.412   0.308   0.249
    1UNL    H25   59  -0.232   0.130   0.178
    1UNL    H26   60  -0.459  -0.012   0.266
    1UNL    H27   61  -0.284  -0.105   0.135
    1UNL    H28   62  -0.440  -0.057  -0.090
   0.00000   0.00000   0.00000   0.00000   0.00000   0.00000   0.00000   0.00000   0.00000
Generated with MDTraj, t= 44.0
 62
    1UNL     C1    1  -0.184  -0.382  -0.117
    1UNL     C2    2  -0.047  -0.330  -0.102
    1UNL     C3    3   0.053  -0.396  -0.005
    1UNL     C4    4   0.184  -0.312   0.000
    1UNL     O1    5   0.272  -0.352   0.103
    1UNL     O2    6   0.234  -0.314  -0.134
    1UNL     C5    7   0.136  -0.242  -0.215
    1UNL     O3    8   0.020  -0.323  -0.230
    1UNL     C6    9   0.091  -0.120  -0.118
    1UNL     C7   10   0.114   0.017  -0.184
    1UNL     O4   11   0.237   0.082  -0.158
    1UNL     C8   12   0.238   0.142  -0.044
    1UNL     O5   13   0.139   0.173   0.016
    1UNL     C9   14   0.371   0.187   0.005
    1UNL    C10   15   0.490   0.142  -0.064
    1UNL    C11   16   0.611   0.169  -0.003
    1UNL    C12   17   0.612   0.242   0.113
    1UNL    C13   18   0.501   0.285   0.176
    1UNL    C14   19   0.378   0.257   0.127
    1UNL    C15   20   0.148  -0.159   0.022
    1UNL    C16   21   0.010  -0.143   0.087
    1UNL    C17   22  -0.049  -0.169  -0.056
    1UNL     O6   23  -0.169  -0.111  -0.107
    1UNL    C18   24  -0.210   0.006  -0.039
    1UNL     O7   25  -0.264   0.105  -0.114
    1UNL    C19   26  -0.294   0.232  -0.051
    1UNL    C20   27  -0.171   0.305  -0.007
    1UNL     O8   28  -0.197   0.440   0.042
    1UNL    C21   29  -0.401   0.220   0.061
    1UNL     O9   30  -0.422   0.339   0.135
    1UNL    C22   31  -0.353   0.093   0.156
    1UNL    O10   32  -0.464   0.050   0.236
    1UNL    C23   33  -0.309  -0.030   0.079
    1UNL    O11   34  -0.425  -0.093   0.029
    1UNL     H1   35  -0.246  -0.312  -0.181
    1UNL     H2   36  -0.182  -0.476  -0.170
    1UNL     H3   37  -0.234  -0.393  -0.021
    1UNL     H4   38   0.015  -0.405   0.102
    1UNL     H5   39   0.079  -0.492  -0.038
    1UNL     H6   40   0.324  -0.437   0.073
    1UNL     H7   41   0.184  -0.227  -0.316
    1UNL     H8   42   0.033   0.080  -0.153
    1UNL     H9   43   0.102   0.015  -0.297
    1UNL    H10   44   0.472   0.108  -0.163
    1UNL    H11   45   0.705   0.132  -0.048
    1UNL    H12   46   0.709   0.247   0.161
    1UNL    H13   47   0.511   0.332   0.275
    1UNL    H14   48   0.286   0.284   0.182
    1UNL    H15   49   0.223  -0.080   0.057
    1UNL    H16   50  -0.003  -0.211   0.172
    1UNL    H17   51  -0.019  -0.042   0.122
    1UNL    H18   52  -0.109   0.048   0.006
    1UNL    H19   53  -0.332   0.290  -0.133
    1UNL    H20   54  -0.102   0.317  -0.096
    1UNL    H21   55  -0.117   0.258   0.075
    1UNL    H22   56  -0.292   0.435   0.081
    1UNL    H23   57  -0.490   0.195   0.011
    1UNL    H24   58  -0.432   0.303   0.220
    1UNL    H25   59  -0.272   0.126   0.224
    1UNL    H26   60  -0.484  -0.044   0.232
    1UNL    H27   61  -0.257  -0.097   0.152
    1UNL    H28   62  -0.444  -0.062  -0.058
   0.00000   0.00000   0.00000   0.00000   0.00000   0.00000   0.00000   0.00000   0.00000
Generated with MDTraj, t= 45.0
 62
    1UNL     C1    1  -0.191  -0.391  -0.089
    1UNL     C2    2  -0.050  -0.321  -0.095
    1UNL     C3    3   0.049  -0.403   0.006
    1UNL     C4    4   0.175  -0.317   0.009
    1UNL     O1    5   0.267  -0.357   0.108
    1UNL     O2    6   0.232  -0.320  -0.128
    1UNL     C5    7   0.136  -0.245  -0.210
    1UNL     O3    8   0.013  -0.326  -0.224
    1UNL     C6    9   0.095  -0.126  -0.115
    1UNL     C7   10   0.106   0.015  -0.183
    1UNL     O4   11   0.231   0.075  -0.151
    1UNL     C8   12   0.226   0.151  -0.041
    1UNL     O5   13   0.125   0.177   0.019
    1UNL     C9   14   0.359   0.189   0.005
    1UNL    C10   15   0.474   0.141  -0.070
    1UNL    C11   16   0.599   0.172  -0.026
    1UNL    C12   17   0.614   0.250   0.088
    1UNL    C13   18   0.508   0.293   0.162
    1UNL    C14   19   0.381   0.258   0.122
    1UNL    C15   20   0.146  -0.166   0.031
    1UNL    C16   21   0.004  -0.146   0.082
    1UNL    C17   22  -0.049  -0.170  -0.062
    1UNL     O6   23  -0.149  -0.090  -0.124
    1UNL    C18   24  -0.188   0.025  -0.044
    1UNL     O7   25  -0.243   0.131  -0.122
    1UNL    C19   26  -0.284   0.247  -0.043
    1UNL    C20   27  -0.154   0.303   0.036
    1UNL     O8   28  -0.174   0.428   0.094
    1UNL    C21   29  -0.404   0.212   0.053
    1UNL     O9   30  -0.462   0.321   0.124
    1UNL    C22   31  -0.353   0.093   0.143
    1UNL    O10   32  -0.469   0.053   0.207
    1UNL    C23   33  -0.298  -0.023   0.066
    1UNL    O11   34  -0.396  -0.113   0.008
    1UNL     H1   35  -0.252  -0.362  -0.177
    1UNL     H2   36  -0.193  -0.498  -0.089
    1UNL     H3   37  -0.250  -0.355  -0.001
    1UNL     H4   38   0.005  -0.428   0.106
    1UNL     H5   39   0.072  -0.494  -0.046
    1UNL     H6   40   0.323  -0.443   0.082
    1UNL     H7   41   0.161  -0.225  -0.317
    1UNL     H8   42   0.033   0.086  -0.163
    1UNL     H9   43   0.097   0.007  -0.298
    1UNL    H10   44   0.460   0.076  -0.160
    1UNL    H11   45   0.690   0.148  -0.077
    1UNL    H12   46   0.711   0.278   0.117
    1UNL    H13   47   0.535   0.346   0.251
    1UNL    H14   48   0.307   0.280   0.195
    1UNL    H15   49   0.233  -0.103   0.071
    1UNL    H16   50  -0.018  -0.222   0.154
    1UNL    H17   51  -0.013  -0.043   0.125
    1UNL    H18   52  -0.095   0.063   0.008
    1UNL    H19   53  -0.322   0.323  -0.110
    1UNL    H20   54  -0.060   0.316  -0.023
    1UNL    H21   55  -0.133   0.239   0.120
    1UNL    H22   56  -0.258   0.417   0.139
    1UNL    H23   57  -0.485   0.182  -0.010
    1UNL    H24   58  -0.477   0.299   0.221
    1UNL    H25   59  -0.286   0.125   0.223
    1UNL    H26   60  -0.521   0.003   0.140
    1UNL    H27   61  -0.242  -0.085   0.143
    1UNL    H28   62  -0.395  -0.101  -0.088
   0.00000   0.00000   0.00000   0.00000   0.00000   0.00000   0.00000   0.00000   0.00000
Generated with MDTraj, t= 46.0
 62
    1UNL     C1    1  -0.199  -0.376  -0.084
    1UNL     C2    2  -0.054  -0.324  -0.082
    1UNL     C3    3   0.046  -0.396   0.013
    1UNL     C4    4   0.180  -0.332   0.009
    1UNL     O1    5   0.275  -0.374   0.106
    1UNL     O2    6   0.222  -0.348  -0.131
    1UNL     C5    7   0.131  -0.267  -0.213
    1UNL     O3    8   0.004  -0.335  -0.217
    1UNL     C6    9   0.105  -0.139  -0.122
    1UNL     C7   10   0.116   0.001  -0.186
    1UNL     O4   11   0.238   0.070  -0.162
    1UNL     C8   12   0.232   0.138  -0.041
    1UNL     O5   13   0.137   0.142   0.039
    1UNL     C9   14   0.362   0.184  -0.002
    1UNL    C10   15   0.479   0.150  -0.071
    1UNL    C11   16   0.601   0.197  -0.031
    1UNL    C12   17   0.609   0.273   0.081
    1UNL    C13   18   0.499   0.310   0.148
    1UNL    C14   19   0.376   0.264   0.113
    1UNL    C15   20   0.166  -0.173   0.020
    1UNL    C16   21   0.031  -0.128   0.081
    1UNL    C17   22  -0.038  -0.163  -0.053
    1UNL     O6   23  -0.140  -0.082  -0.111
    1UNL    C18   24  -0.192   0.021  -0.029
    1UNL     O7   25  -0.225   0.138  -0.108
    1UNL    C19   26  -0.272   0.253  -0.036
    1UNL    C20   27  -0.158   0.320   0.052
    1UNL     O8   28  -0.208   0.418   0.136
    1UNL    C21   29  -0.398   0.213   0.041
    1UNL     O9   30  -0.460   0.309   0.121
    1UNL    C22   31  -0.361   0.094   0.134
    1UNL    O10   32  -0.479   0.059   0.205
    1UNL    C23   33  -0.311  -0.027   0.052
    1UNL    O11   34  -0.422  -0.069  -0.037
    1UNL     H1   35  -0.252  -0.299  -0.137
    1UNL     H2   36  -0.217  -0.470  -0.138
    1UNL     H3   37  -0.239  -0.378   0.021
    1UNL     H4   38   0.007  -0.380   0.111
    1UNL     H5   39   0.051  -0.505  -0.010
    1UNL     H6   40   0.348  -0.422   0.048
    1UNL     H7   41   0.184  -0.241  -0.306
    1UNL     H8   42   0.040   0.057  -0.151
    1UNL     H9   43   0.097  -0.006  -0.299
    1UNL    H10   44   0.475   0.084  -0.152
    1UNL    H11   45   0.689   0.183  -0.094
    1UNL    H12   46   0.702   0.334   0.105
    1UNL    H13   47   0.506   0.379   0.233
    1UNL    H14   48   0.289   0.286   0.175
    1UNL    H15   49   0.261  -0.113   0.042
    1UNL    H16   50  -0.005  -0.194   0.157
    1UNL    H17   51   0.032  -0.023   0.116
    1UNL    H18   52  -0.123   0.057   0.042
    1UNL    H19   53  -0.306   0.325  -0.111
    1UNL    H20   54  -0.084   0.363  -0.017
    1UNL    H21   55  -0.102   0.254   0.115
    1UNL    H22   56  -0.307   0.401   0.132
    1UNL    H23   57  -0.471   0.179  -0.034
    1UNL    H24   58  -0.512   0.266   0.200
    1UNL    H25   59  -0.285   0.108   0.209
    1UNL    H26   60  -0.546   0.037   0.134
    1UNL    H27   61  -0.279  -0.117   0.116
    1UNL    H28   62  -0.383  -0.096  -0.127
   0.00000   0.00000   0.00000   0.00000   0.00000   0.00000   0.00000   0.00000   0.00000
Generated with MDTraj, t= 47.0
 62
    1UNL     C1    1  -0.205  -0.373  -0.063
    1UNL     C2    2  -0.063  -0.322  -0.076
    1UNL     C3    3   0.044  -0.403   0.017
    1UNL     C4    4   0.181  -0.340   0.000
    1UNL     O1    5   0.286  -0.390   0.083
    1UNL     O2    6   0.212  -0.360  -0.147
    1UNL     C5    7   0.119  -0.281  -0.212
    1UNL     O3    8  -0.013  -0.343  -0.206
    1UNL     C6    9   0.098  -0.149  -0.122
    1UNL     C7   10   0.130  -0.007  -0.186
    1UNL     O4   11   0.263   0.031  -0.161
    1UNL     C8   12   0.258   0.109  -0.046
    1UNL     O5   13   0.162   0.134   0.032
    1UNL     C9   14   0.384   0.183  -0.005
    1UNL    C10   15   0.500   0.164  -0.068
    1UNL    C11   16   0.610   0.236  -0.028
    1UNL    C12   17   0.602   0.318   0.080
    1UNL    C13   18   0.482   0.331   0.149
    1UNL    C14   19   0.373   0.268   0.105
    1UNL    C15   20   0.162  -0.182   0.018
    1UNL    C16   21   0.038  -0.130   0.082
    1UNL    C17   22  -0.041  -0.163  -0.046
    1UNL     O6   23  -0.138  -0.077  -0.105
    1UNL    C18   24  -0.195   0.024  -0.021
    1UNL     O7   25  -0.222   0.140  -0.098
    1UNL    C19   26  -0.269   0.251  -0.022
    1UNL    C20   27  -0.173   0.305   0.081
    1UNL     O8   28  -0.208   0.434   0.129
    1UNL    C21   29  -0.398   0.221   0.047
    1UNL     O9   30  -0.454   0.321   0.126
    1UNL    C22   31  -0.385   0.088   0.133
    1UNL    O10   32  -0.505   0.039   0.189
    1UNL    C23   33  -0.325  -0.021   0.048
    1UNL    O11   34  -0.418  -0.042  -0.058
    1UNL     H1   35  -0.271  -0.318  -0.126
    1UNL     H2   36  -0.209  -0.480  -0.097
    1UNL     H3   37  -0.231  -0.362   0.044
    1UNL     H4   38   0.020  -0.402   0.118
    1UNL     H5   39   0.040  -0.511  -0.016
    1UNL     H6   40   0.376  -0.376   0.031
    1UNL     H7   41   0.156  -0.248  -0.310
    1UNL     H8   42   0.064   0.059  -0.152
    1UNL     H9   43   0.117  -0.012  -0.298
    1UNL    H10   44   0.507   0.100  -0.159
    1UNL    H11   45   0.706   0.227  -0.075
    1UNL    H12   46   0.685   0.368   0.111
    1UNL    H13   47   0.475   0.401   0.230
    1UNL    H14   48   0.273   0.277   0.144
    1UNL    H15   49   0.255  -0.118   0.036
    1UNL    H16   50   0.012  -0.197   0.165
    1UNL    H17   51   0.038  -0.026   0.113
    1UNL    H18   52  -0.133   0.050   0.054
    1UNL    H19   53  -0.296   0.332  -0.094
    1UNL    H20   54  -0.069   0.308   0.047
    1UNL    H21   55  -0.170   0.241   0.164
    1UNL    H22   56  -0.306   0.456   0.129
    1UNL    H23   57  -0.467   0.197  -0.039
    1UNL    H24   58  -0.534   0.285   0.158
    1UNL    H25   59  -0.317   0.117   0.209
    1UNL    H26   60  -0.582   0.031   0.134
    1UNL    H27   61  -0.318  -0.119   0.105
    1UNL    H28   62  -0.372  -0.020  -0.139
   0.00000   0.00000   0.00000   0.00000   0.00000   0.00000   0.00000   0.00000   0.00000
Generated with MDTraj, t= 48.0
 62
    1UNL     C1    1  -0.212  -0.349  -0.042
    1UNL     C2    2  -0.065  -0.319  -0.069
    1UNL     C3    3   0.028  -0.411   0.018
    1UNL     C4    4   0.170  -0.355  -0.000
    1UNL     O1    5   0.269  -0.426   0.080
    1UNL     O2    6   0.207  -0.371  -0.146
    1UNL     C5    7   0.114  -0.289  -0.215
    1UNL     O3    8  -0.022  -0.342  -0.209
    1UNL     C6    9   0.109  -0.161  -0.128
    1UNL     C7   10   0.142  -0.005  -0.190
    1UNL     O4   11   0.267   0.040  -0.149
    1UNL     C8   12   0.259   0.120  -0.034
    1UNL     O5   13   0.153   0.147   0.026
    1UNL     C9   14   0.383   0.195   0.005
    1UNL    C10   15   0.499   0.175  -0.068
    1UNL    C11   16   0.607   0.255  -0.035
    1UNL    C12   17   0.602   0.347   0.064
    1UNL    C13   18   0.489   0.354   0.145
    1UNL    C14   19   0.376   0.284   0.108
    1UNL    C15   20   0.174  -0.195   0.013
    1UNL    C16   21   0.045  -0.130   0.076
    1UNL    C17   22  -0.031  -0.169  -0.051
    1UNL     O6   23  -0.138  -0.082  -0.103
    1UNL    C18   24  -0.196   0.022  -0.015
    1UNL     O7   25  -0.208   0.144  -0.086
    1UNL    C19   26  -0.264   0.251  -0.009
    1UNL    C20   27  -0.152   0.312   0.085
    1UNL     O8   28  -0.190   0.438   0.137
    1UNL    C21   29  -0.399   0.215   0.058
    1UNL     O9   30  -0.430   0.325   0.141
    1UNL    C22   31  -0.404   0.075   0.125
    1UNL    O10   32  -0.542   0.051   0.144
    1UNL    C23   33  -0.333  -0.030   0.034
    1UNL    O11   34  -0.417  -0.083  -0.068
    1UNL     H1   35  -0.273  -0.299  -0.116
    1UNL     H2   36  -0.244  -0.459  -0.045
    1UNL     H3   37  -0.234  -0.304   0.053
    1UNL     H4   38  -0.015  -0.403   0.116
    1UNL     H5   39   0.030  -0.519  -0.009
    1UNL     H6   40   0.343  -0.446   0.016
    1UNL     H7   41   0.140  -0.265  -0.317
    1UNL     H8   42   0.081   0.068  -0.161
    1UNL     H9   43   0.134  -0.009  -0.300
    1UNL    H10   44   0.511   0.107  -0.147
    1UNL    H11   45   0.699   0.228  -0.089
    1UNL    H12   46   0.701   0.388   0.101
    1UNL    H13   47   0.485   0.419   0.231
    1UNL    H14   48   0.278   0.299   0.149
    1UNL    H15   49   0.271  -0.136   0.015
    1UNL    H16   50   0.010  -0.178   0.170
    1UNL    H17   51   0.063  -0.023   0.093
    1UNL    H18   52  -0.132   0.039   0.066
    1UNL    H19   53  -0.294   0.328  -0.086
    1UNL    H20   54  -0.064   0.326   0.021
    1UNL    H21   55  -0.107   0.251   0.159
    1UNL    H22   56  -0.262   0.430   0.204
    1UNL    H23   57  -0.478   0.204  -0.024
    1UNL    H24   58  -0.516   0.314   0.183
    1UNL    H25   59  -0.352   0.092   0.218
    1UNL    H26   60  -0.561  -0.036   0.183
    1UNL    H27   61  -0.314  -0.123   0.093
    1UNL    H28   62  -0.376  -0.051  -0.147
   0.00000   0.00000   0.00000   0.00000   0.00000   0.00000   0.00000   0.00000   0.00000
Generated with MDTraj, t= 49.0
 62
    1UNL     C1    1  -0.219  -0.347  -0.062
    1UNL     C2    2  -0.069  -0.319  -0.073
    1UNL     C3    3   0.020  -0.416   0.010
    1UNL     C4    4   0.164  -0.357   0.004
    1UNL     O1    5   0.256  -0.425   0.090
    1UNL     O2    6   0.204  -0.374  -0.134
    1UNL     C5    7   0.111  -0.290  -0.207
    1UNL     O3    8  -0.021  -0.338  -0.208
    1UNL     C6    9   0.105  -0.159  -0.117
    1UNL     C7   10   0.139  -0.021  -0.170
    1UNL     O4   11   0.255   0.039  -0.133
    1UNL     C8   12   0.240   0.136  -0.035
    1UNL     O5   13   0.130   0.150   0.019
    1UNL     C9   14   0.363   0.209  -0.001
    1UNL    C10   15   0.479   0.185  -0.081
    1UNL    C11   16   0.593   0.253  -0.051
    1UNL    C12   17   0.597   0.339   0.058
    1UNL    C13   18   0.482   0.364   0.134
    1UNL    C14   19   0.362   0.298   0.099
    1UNL    C15   20   0.162  -0.202   0.023
    1UNL    C16   21   0.041  -0.140   0.090
    1UNL    C17   22  -0.036  -0.162  -0.045
    1UNL     O6   23  -0.120  -0.073  -0.113
    1UNL    C18   24  -0.178   0.029  -0.029
    1UNL     O7   25  -0.199   0.151  -0.095
    1UNL    C19   26  -0.247   0.256  -0.009
    1UNL    C20   27  -0.140   0.287   0.103
    1UNL     O8   28  -0.158   0.412   0.164
    1UNL    C21   29  -0.387   0.218   0.053
    1UNL     O9   30  -0.436   0.322   0.132
    1UNL    C22   31  -0.388   0.081   0.128
    1UNL    O10   32  -0.528   0.036   0.140
    1UNL    C23   33  -0.307  -0.030   0.037
    1UNL    O11   34  -0.389  -0.069  -0.074
    1UNL     H1   35  -0.277  -0.263  -0.106
    1UNL     H2   36  -0.241  -0.426  -0.137
    1UNL     H3   37  -0.258  -0.370   0.035
    1UNL     H4   38  -0.011  -0.414   0.116
    1UNL     H5   39   0.001  -0.514  -0.032
    1UNL     H6   40   0.339  -0.407   0.045
    1UNL     H7   41   0.149  -0.258  -0.301
    1UNL     H8   42   0.059   0.035  -0.146
    1UNL     H9   43   0.151  -0.026  -0.280
    1UNL    H10   44   0.478   0.104  -0.156
    1UNL    H11   45   0.684   0.227  -0.102
    1UNL    H12   46   0.685   0.394   0.084
    1UNL    H13   47   0.485   0.435   0.218
    1UNL    H14   48   0.265   0.323   0.144
    1UNL    H15   49   0.253  -0.144   0.054
    1UNL    H16   50   0.003  -0.208   0.168
    1UNL    H17   51   0.051  -0.032   0.124
    1UNL    H18   52  -0.100   0.059   0.045
    1UNL    H19   53  -0.268   0.343  -0.078
    1UNL    H20   54  -0.035   0.280   0.068
    1UNL    H21   55  -0.141   0.210   0.176
    1UNL    H22   56  -0.258   0.423   0.174
    1UNL    H23   57  -0.462   0.200  -0.034
    1UNL    H24   58  -0.524   0.301   0.178
    1UNL    H25   59  -0.355   0.092   0.232
    1UNL    H26   60  -0.542  -0.054   0.096
    1UNL    H27   61  -0.293  -0.121   0.096
    1UNL    H28   62  -0.351  -0.017  -0.148
   0.00000   0.00000   0.00000   0.00000   0.00000   0.00000   0.00000   0.00000   0.00000
Generated with MDTraj, t= 50.0
 62
    1UNL     C1    1  -0.220  -0.365  -0.105
    1UNL     C2    2  -0.069  -0.332  -0.085
    1UNL     C3    3   0.013  -0.412   0.023
    1UNL     C4    4   0.160  -0.361   0.013
    1UNL     O1    5   0.243  -0.416   0.120
    1UNL     O2    6   0.206  -0.382  -0.128
    1UNL     C5    7   0.125  -0.293  -0.206
    1UNL     O3    8  -0.004  -0.346  -0.217
    1UNL     C6    9   0.106  -0.161  -0.123
    1UNL     C7   10   0.128  -0.022  -0.182
    1UNL     O4   11   0.246   0.038  -0.139
    1UNL     C8   12   0.232   0.134  -0.047
    1UNL     O5   13   0.128   0.151   0.013
    1UNL     C9   14   0.356   0.205  -0.004
    1UNL    C10   15   0.475   0.189  -0.075
    1UNL    C11   16   0.587   0.263  -0.047
    1UNL    C12   17   0.583   0.357   0.059
    1UNL    C13   18   0.464   0.377   0.129
    1UNL    C14   19   0.352   0.299   0.097
    1UNL    C15   20   0.162  -0.205   0.024
    1UNL    C16   21   0.029  -0.145   0.079
    1UNL    C17   22  -0.036  -0.179  -0.058
    1UNL     O6   23  -0.129  -0.083  -0.122
    1UNL    C18   24  -0.174   0.023  -0.038
    1UNL     O7   25  -0.185   0.153  -0.099
    1UNL    C19   26  -0.220   0.254  -0.009
    1UNL    C20   27  -0.127   0.290   0.116
    1UNL     O8   28  -0.184   0.395   0.193
    1UNL    C21   29  -0.364   0.220   0.050
    1UNL     O9   30  -0.422   0.313   0.136
    1UNL    C22   31  -0.373   0.089   0.124
    1UNL    O10   32  -0.501   0.066   0.169
    1UNL    C23   33  -0.305  -0.023   0.034
    1UNL    O11   34  -0.397  -0.045  -0.065
    1UNL     H1   35  -0.270  -0.308  -0.188
    1UNL     H2   36  -0.239  -0.467  -0.131
    1UNL     H3   37  -0.269  -0.335  -0.012
    1UNL     H4   38  -0.043  -0.403   0.123
    1UNL     H5   39   0.016  -0.512  -0.010
    1UNL     H6   40   0.246  -0.507   0.106
    1UNL     H7   41   0.167  -0.277  -0.302
    1UNL     H8   42   0.052   0.040  -0.157
    1UNL     H9   43   0.133  -0.035  -0.292
    1UNL    H10   44   0.481   0.110  -0.146
    1UNL    H11   45   0.681   0.245  -0.095
    1UNL    H12   46   0.659   0.429   0.068
    1UNL    H13   47   0.442   0.461   0.190
    1UNL    H14   48   0.261   0.317   0.150
    1UNL    H15   49   0.260  -0.157   0.043
    1UNL    H16   50  -0.026  -0.183   0.168
    1UNL    H17   51   0.039  -0.031   0.094
    1UNL    H18   52  -0.086   0.043   0.038
    1UNL    H19   53  -0.237   0.344  -0.072
    1UNL    H20   54  -0.023   0.315   0.083
    1UNL    H21   55  -0.116   0.205   0.182
    1UNL    H22   56  -0.272   0.402   0.158
    1UNL    H23   57  -0.438   0.219  -0.039
    1UNL    H24   58  -0.504   0.278   0.187
    1UNL    H25   59  -0.308   0.103   0.214
    1UNL    H26   60  -0.550   0.035   0.091
    1UNL    H27   61  -0.294  -0.107   0.100
    1UNL    H28   62  -0.349  -0.099  -0.136
   0.00000   0.00000   0.00000   0.00000   0.00000   0.00000   0.00000   0.00000   0.00000
Generated with MDTraj, t= 51.0
 62
    1UNL     C1    1  -0.209  -0.359  -0.103
    1UNL     C2    2  -0.062  -0.323  -0.095
    1UNL     C3    3   0.019  -0.413   0.008
    1UNL     C4    4   0.168  -0.363   0.008
    1UNL     O1    5   0.242  -0.431   0.113
    1UNL     O2    6   0.205  -0.383  -0.125
    1UNL     C5    7   0.135  -0.290  -0.204
    1UNL     O3    8   0.002  -0.350  -0.219
    1UNL     C6    9   0.106  -0.159  -0.116
    1UNL     C7   10   0.140  -0.032  -0.185
    1UNL     O4   11   0.264   0.023  -0.143
    1UNL     C8   12   0.242   0.112  -0.047
    1UNL     O5   13   0.138   0.127   0.012
    1UNL     C9   14   0.351   0.205  -0.011
    1UNL    C10   15   0.475   0.195  -0.067
    1UNL    C11   16   0.586   0.276  -0.030
    1UNL    C12   17   0.563   0.376   0.069
    1UNL    C13   18   0.440   0.388   0.125
    1UNL    C14   19   0.338   0.301   0.094
    1UNL    C15   20   0.162  -0.206   0.026
    1UNL    C16   21   0.023  -0.153   0.088
    1UNL    C17   22  -0.034  -0.174  -0.056
    1UNL     O6   23  -0.137  -0.080  -0.118
    1UNL    C18   24  -0.190   0.022  -0.040
    1UNL     O7   25  -0.203   0.151  -0.104
    1UNL    C19   26  -0.234   0.248  -0.006
    1UNL    C20   27  -0.121   0.269   0.101
    1UNL     O8   28  -0.134   0.392   0.173
    1UNL    C21   29  -0.369   0.226   0.063
    1UNL     O9   30  -0.418   0.338   0.135
    1UNL    C22   31  -0.372   0.085   0.136
    1UNL    O10   32  -0.499   0.072   0.186
    1UNL    C23   33  -0.325  -0.022   0.030
    1UNL    O11   34  -0.426  -0.033  -0.067
    1UNL     H1   35  -0.262  -0.306  -0.185
    1UNL     H2   36  -0.212  -0.460  -0.134
    1UNL     H3   37  -0.262  -0.340  -0.007
    1UNL     H4   38  -0.032  -0.418   0.109
    1UNL     H5   39   0.023  -0.510  -0.036
    1UNL     H6   40   0.324  -0.393   0.128
    1UNL     H7   41   0.182  -0.280  -0.298
    1UNL     H8   42   0.067   0.038  -0.168
    1UNL     H9   43   0.146  -0.049  -0.296
    1UNL    H10   44   0.483   0.116  -0.142
    1UNL    H11   45   0.689   0.254  -0.064
    1UNL    H12   46   0.651   0.442   0.102
    1UNL    H13   47   0.415   0.478   0.182
    1UNL    H14   48   0.234   0.312   0.123
    1UNL    H15   49   0.245  -0.150   0.075
    1UNL    H16   50  -0.009  -0.206   0.184
    1UNL    H17   51   0.033  -0.045   0.113
    1UNL    H18   52  -0.115   0.035   0.038
    1UNL    H19   53  -0.238   0.340  -0.066
    1UNL    H20   54  -0.028   0.292   0.039
    1UNL    H21   55  -0.104   0.183   0.164
    1UNL    H22   56  -0.232   0.421   0.166
    1UNL    H23   57  -0.447   0.200  -0.016
    1UNL    H24   58  -0.487   0.301   0.187
    1UNL    H25   59  -0.301   0.092   0.223
    1UNL    H26   60  -0.556   0.043   0.114
    1UNL    H27   61  -0.317  -0.109   0.090
    1UNL    H28   62  -0.401   0.012  -0.147
   0.00000   0.00000   0.00000   0.00000   0.00000   0.00000   0.00000   0.00000   0.00000
Generated with MDTraj, t= 52.0
 62
    1UNL     C1    1  -0.218  -0.383  -0.070
    1UNL     C2    2  -0.071  -0.341  -0.083
    1UNL     C3    3   0.021  -0.417   0.013
    1UNL     C4    4   0.172  -0.358  -0.002
    1UNL     O1    5   0.249  -0.415   0.107
    1UNL     O2    6   0.208  -0.377  -0.139
    1UNL     C5    7   0.115  -0.287  -0.216
    1UNL     O3    8  -0.013  -0.357  -0.217
    1UNL     C6    9   0.091  -0.158  -0.131
    1UNL     C7   10   0.122  -0.026  -0.182
    1UNL     O4   11   0.255   0.034  -0.139
    1UNL     C8   12   0.236   0.113  -0.027
    1UNL     O5   13   0.135   0.121   0.037
    1UNL     C9   14   0.349   0.204   0.012
    1UNL    C10   15   0.477   0.195  -0.046
    1UNL    C11   16   0.582   0.281  -0.012
    1UNL    C12   17   0.558   0.398   0.068
    1UNL    C13   18   0.430   0.402   0.130
    1UNL    C14   19   0.334   0.307   0.106
    1UNL    C15   20   0.159  -0.205   0.005
    1UNL    C16   21   0.026  -0.149   0.074
    1UNL    C17   22  -0.049  -0.181  -0.059
    1UNL     O6   23  -0.151  -0.093  -0.115
    1UNL    C18   24  -0.198   0.013  -0.037
    1UNL     O7   25  -0.198   0.144  -0.103
    1UNL    C19   26  -0.218   0.249  -0.015
    1UNL    C20   27  -0.095   0.295   0.066
    1UNL     O8   28  -0.111   0.423   0.129
    1UNL    C21   29  -0.352   0.222   0.077
    1UNL     O9   30  -0.367   0.330   0.170
    1UNL    C22   31  -0.369   0.075   0.130
    1UNL    O10   32  -0.503   0.056   0.161
    1UNL    C23   33  -0.329  -0.029   0.026
    1UNL    O11   34  -0.424  -0.039  -0.080
    1UNL     H1   35  -0.272  -0.314  -0.133
    1UNL     H2   36  -0.236  -0.481  -0.111
    1UNL     H3   37  -0.255  -0.371   0.036
    1UNL     H4   38  -0.024  -0.408   0.114
    1UNL     H5   39   0.017  -0.520  -0.024
    1UNL     H6   40   0.262  -0.508   0.100
    1UNL     H7   41   0.157  -0.278  -0.311
    1UNL     H8   42   0.046   0.035  -0.150
    1UNL     H9   43   0.117  -0.030  -0.295
    1UNL    H10   44   0.497   0.108  -0.104
    1UNL    H11   45   0.681   0.257  -0.038
    1UNL    H12   46   0.633   0.454   0.108
    1UNL    H13   47   0.406   0.490   0.183
    1UNL    H14   48   0.233   0.328   0.139
    1UNL    H15   49   0.251  -0.152   0.034
    1UNL    H16   50  -0.018  -0.204   0.165
    1UNL    H17   51   0.040  -0.041   0.090
    1UNL    H18   52  -0.123   0.030   0.029
    1UNL    H19   53  -0.237   0.329  -0.088
    1UNL    H20   54  -0.004   0.307  -0.003
    1UNL    H21   55  -0.079   0.225   0.148
    1UNL    H22   56  -0.191   0.422   0.180
    1UNL    H23   57  -0.439   0.237   0.010
    1UNL    H24   58  -0.435   0.312   0.239
    1UNL    H25   59  -0.309   0.078   0.227
    1UNL    H26   60  -0.555   0.010   0.086
    1UNL    H27   61  -0.319  -0.128   0.065
    1UNL    H28   62  -0.374  -0.038  -0.161
   0.00000   0.00000   0.00000   0.00000   0.00000   0.00000   0.00000   0.00000   0.00000
Generated with MDTraj, t= 53.0
 62
    1UNL     C1    1  -0.213  -0.364  -0.081
    1UNL     C2    2  -0.065  -0.337  -0.077
    1UNL     C3    3   0.036  -0.431   0.009
    1UNL     C4    4   0.176  -0.362  -0.007
    1UNL     O1    5   0.270  -0.426   0.073
    1UNL     O2    6   0.215  -0.366  -0.146
    1UNL     C5    7   0.114  -0.286  -0.212
    1UNL     O3    8  -0.014  -0.347  -0.212
    1UNL     C6    9   0.101  -0.161  -0.114
    1UNL     C7   10   0.118  -0.026  -0.169
    1UNL     O4   11   0.242   0.037  -0.131
    1UNL     C8   12   0.210   0.119  -0.019
    1UNL     O5   13   0.107   0.112   0.042
    1UNL     C9   14   0.324   0.205   0.017
    1UNL    C10   15   0.452   0.186  -0.043
    1UNL    C11   16   0.561   0.264  -0.009
    1UNL    C12   17   0.548   0.369   0.078
    1UNL    C13   18   0.420   0.397   0.135
    1UNL    C14   19   0.312   0.315   0.102
    1UNL    C15   20   0.165  -0.200   0.020
    1UNL    C16   21   0.031  -0.160   0.092
    1UNL    C17   22  -0.040  -0.186  -0.046
    1UNL     O6   23  -0.140  -0.104  -0.110
    1UNL    C18   24  -0.187   0.012  -0.043
    1UNL     O7   25  -0.209   0.134  -0.115
    1UNL    C19   26  -0.221   0.249  -0.028
    1UNL    C20   27  -0.096   0.286   0.059
    1UNL     O8   28  -0.103   0.423   0.095
    1UNL    C21   29  -0.354   0.238   0.066
    1UNL     O9   30  -0.334   0.330   0.169
    1UNL    C22   31  -0.358   0.095   0.125
    1UNL    O10   32  -0.489   0.060   0.177
    1UNL    C23   33  -0.325  -0.024   0.030
    1UNL    O11   34  -0.423  -0.021  -0.075
    1UNL     H1   35  -0.269  -0.301  -0.148
    1UNL     H2   36  -0.226  -0.468  -0.118
    1UNL     H3   37  -0.248  -0.354   0.023
    1UNL     H4   38   0.003  -0.441   0.109
    1UNL     H5   39   0.037  -0.528  -0.051
    1UNL     H6   40   0.368  -0.416   0.049
    1UNL     H7   41   0.142  -0.267  -0.310
    1UNL     H8   42   0.037   0.033  -0.135
    1UNL     H9   43   0.107  -0.036  -0.281
    1UNL    H10   44   0.455   0.096  -0.104
    1UNL    H11   45   0.662   0.219  -0.019
    1UNL    H12   46   0.630   0.441   0.099
    1UNL    H13   47   0.403   0.484   0.202
    1UNL    H14   48   0.212   0.345   0.131
    1UNL    H15   49   0.257  -0.144   0.042
    1UNL    H16   50  -0.000  -0.218   0.184
    1UNL    H17   51   0.040  -0.052   0.121
    1UNL    H18   52  -0.119   0.040   0.032
    1UNL    H19   53  -0.229   0.326  -0.106
    1UNL    H20   54  -0.000   0.292  -0.005
    1UNL    H21   55  -0.090   0.224   0.148
    1UNL    H22   56  -0.201   0.449   0.110
    1UNL    H23   57  -0.443   0.262   0.009
    1UNL    H24   58  -0.406   0.343   0.242
    1UNL    H25   59  -0.292   0.090   0.216
    1UNL    H26   60  -0.547   0.029   0.107
    1UNL    H27   61  -0.324  -0.121   0.076
    1UNL    H28   62  -0.369   0.021  -0.150
   0.00000   0.00000   0.00000   0.00000   0.00000   0.00000   0.00000   0.00000   0.00000
Generated with MDTraj, t= 54.0
 62
    1UNL     C1    1  -0.201  -0.403  -0.102
    1UNL     C2    2  -0.058  -0.357  -0.099
    1UNL     C3    3   0.039  -0.436  -0.002
    1UNL     C4    4   0.175  -0.360  -0.011
    1UNL     O1    5   0.274  -0.415   0.090
    1UNL     O2    6   0.224  -0.360  -0.147
    1UNL     C5    7   0.123  -0.287  -0.222
    1UNL     O3    8   0.000  -0.366  -0.230
    1UNL     C6    9   0.090  -0.164  -0.127
    1UNL     C7   10   0.101  -0.012  -0.183
    1UNL     O4   11   0.223   0.046  -0.145
    1UNL     C8   12   0.209   0.117  -0.027
    1UNL     O5   13   0.109   0.107   0.037
    1UNL     C9   14   0.330   0.198   0.027
    1UNL    C10   15   0.454   0.179  -0.022
    1UNL    C11   16   0.559   0.262   0.009
    1UNL    C12   17   0.537   0.365   0.101
    1UNL    C13   18   0.406   0.389   0.151
    1UNL    C14   19   0.305   0.307   0.111
    1UNL    C15   20   0.155  -0.204   0.002
    1UNL    C16   21   0.033  -0.168   0.079
    1UNL    C17   22  -0.041  -0.201  -0.054
    1UNL     O6   23  -0.154  -0.116  -0.096
    1UNL    C18   24  -0.186   0.004  -0.028
    1UNL     O7   25  -0.194   0.119  -0.110
    1UNL    C19   26  -0.217   0.245  -0.038
    1UNL    C20   27  -0.097   0.308   0.037
    1UNL     O8   28  -0.116   0.436   0.087
    1UNL    C21   29  -0.343   0.239   0.060
    1UNL     O9   30  -0.375   0.358   0.133
    1UNL    C22   31  -0.336   0.114   0.143
    1UNL    O10   32  -0.461   0.108   0.212
    1UNL    C23   33  -0.315  -0.012   0.057
    1UNL    O11   34  -0.420  -0.022  -0.035
    1UNL     H1   35  -0.247  -0.352  -0.183
    1UNL     H2   36  -0.210  -0.513  -0.129
    1UNL     H3   37  -0.255  -0.379  -0.012
    1UNL     H4   38   0.011  -0.440   0.099
    1UNL     H5   39   0.043  -0.540  -0.049
    1UNL     H6   40   0.337  -0.478   0.033
    1UNL     H7   41   0.150  -0.260  -0.318
    1UNL     H8   42   0.021   0.051  -0.144
    1UNL     H9   43   0.093  -0.012  -0.293
    1UNL    H10   44   0.471   0.089  -0.078
    1UNL    H11   45   0.656   0.234  -0.023
    1UNL    H12   46   0.625   0.432   0.121
    1UNL    H13   47   0.390   0.482   0.199
    1UNL    H14   48   0.202   0.332   0.133
    1UNL    H15   49   0.245  -0.144   0.019
    1UNL    H16   50   0.009  -0.225   0.171
    1UNL    H17   51   0.033  -0.058   0.118
    1UNL    H18   52  -0.106   0.037   0.043
    1UNL    H19   53  -0.247   0.314  -0.119
    1UNL    H20   54  -0.012   0.319  -0.036
    1UNL    H21   55  -0.063   0.251   0.123
    1UNL    H22   56  -0.185   0.441   0.151
    1UNL    H23   57  -0.426   0.227  -0.004
    1UNL    H24   58  -0.450   0.347   0.196
    1UNL    H25   59  -0.245   0.120   0.205
    1UNL    H26   60  -0.525   0.068   0.147
    1UNL    H27   61  -0.328  -0.108   0.110
    1UNL    H28   62  -0.389  -0.044  -0.128
   0.00000   0.00000   0.00000   0.00000   0.00000   0.00000   0.00000   0.00000   0.00000
Generated with MDTraj, t= 55.0
 62
    1UNL     C1    1  -0.196  -0.418  -0.096
    1UNL     C2    2  -0.062  -0.355  -0.097
    1UNL     C3    3   0.053  -0.432  -0.027
    1UNL     C4    4   0.180  -0.346  -0.025
    1UNL     O1    5   0.271  -0.413   0.070
    1UNL     O2    6   0.227  -0.339  -0.165
    1UNL     C5    7   0.116  -0.266  -0.223
    1UNL     O3    8  -0.001  -0.345  -0.236
    1UNL     C6    9   0.082  -0.154  -0.123
    1UNL     C7   10   0.099  -0.008  -0.175
    1UNL     O4   11   0.224   0.035  -0.138
    1UNL     C8   12   0.215   0.109  -0.019
    1UNL     O5   13   0.110   0.099   0.040
    1UNL     C9   14   0.327   0.199   0.024
    1UNL    C10   15   0.452   0.175  -0.018
    1UNL    C11   16   0.552   0.260   0.025
    1UNL    C12   17   0.530   0.350   0.125
    1UNL    C13   18   0.401   0.374   0.168
    1UNL    C14   19   0.298   0.297   0.118
    1UNL    C15   20   0.152  -0.196   0.017
    1UNL    C16   21   0.013  -0.179   0.088
    1UNL    C17   22  -0.055  -0.202  -0.048
    1UNL     O6   23  -0.167  -0.121  -0.096
    1UNL    C18   24  -0.186   0.004  -0.031
    1UNL     O7   25  -0.208   0.123  -0.116
    1UNL    C19   26  -0.219   0.250  -0.053
    1UNL    C20   27  -0.095   0.297   0.011
    1UNL     O8   28  -0.104   0.425   0.063
    1UNL    C21   29  -0.342   0.240   0.034
    1UNL     O9   30  -0.397   0.361   0.080
    1UNL    C22   31  -0.318   0.137   0.147
    1UNL    O10   32  -0.436   0.137   0.224
    1UNL    C23   33  -0.288  -0.006   0.089
    1UNL    O11   34  -0.406  -0.062   0.030
    1UNL     H1   35  -0.266  -0.346  -0.138
    1UNL     H2   36  -0.197  -0.509  -0.162
    1UNL     H3   37  -0.227  -0.437   0.005
    1UNL     H4   38   0.025  -0.454   0.075
    1UNL     H5   39   0.072  -0.527  -0.081
    1UNL     H6   40   0.355  -0.422   0.006
    1UNL     H7   41   0.141  -0.236  -0.318
    1UNL     H8   42   0.024   0.068  -0.136
    1UNL     H9   43   0.093  -0.004  -0.284
    1UNL    H10   44   0.469   0.087  -0.078
    1UNL    H11   45   0.647   0.237  -0.024
    1UNL    H12   46   0.613   0.392   0.164
    1UNL    H13   47   0.378   0.467   0.219
    1UNL    H14   48   0.194   0.325   0.125
    1UNL    H15   49   0.237  -0.139   0.056
    1UNL    H16   50  -0.012  -0.269   0.151
    1UNL    H17   51   0.009  -0.076   0.139
    1UNL    H18   52  -0.084   0.026   0.017
    1UNL    H19   53  -0.247   0.326  -0.129
    1UNL    H20   54  -0.019   0.304  -0.070
    1UNL    H21   55  -0.056   0.225   0.081
    1UNL    H22   56  -0.180   0.425   0.129
    1UNL    H23   57  -0.421   0.194  -0.018
    1UNL    H24   58  -0.455   0.327   0.146
    1UNL    H25   59  -0.236   0.174   0.209
    1UNL    H26   60  -0.497   0.078   0.173
    1UNL    H27   61  -0.263  -0.081   0.170
    1UNL    H28   62  -0.390  -0.097  -0.057
   0.00000   0.00000   0.00000   0.00000   0.00000   0.00000   0.00000   0.00000   0.00000
Generated with MDTraj, t= 56.0
 62
    1UNL     C1    1  -0.203  -0.396  -0.096
    1UNL     C2    2  -0.058  -0.350  -0.103
    1UNL     C3    3   0.057  -0.436  -0.026
    1UNL     C4    4   0.186  -0.351  -0.037
    1UNL     O1    5   0.286  -0.411   0.048
    1UNL     O2    6   0.218  -0.339  -0.184
    1UNL     C5    7   0.110  -0.268  -0.239
    1UNL     O3    8  -0.009  -0.342  -0.237
    1UNL     C6    9   0.086  -0.151  -0.126
    1UNL     C7   10   0.093   0.004  -0.170
    1UNL     O4   11   0.207   0.061  -0.122
    1UNL     C8   12   0.195   0.115   0.006
    1UNL     O5   13   0.095   0.095   0.071
    1UNL     C9   14   0.313   0.199   0.049
    1UNL    C10   15   0.438   0.172  -0.003
    1UNL    C11   16   0.547   0.247   0.029
    1UNL    C12   17   0.539   0.343   0.128
    1UNL    C13   18   0.419   0.362   0.195
    1UNL    C14   19   0.302   0.292   0.151
    1UNL    C15   20   0.162  -0.201  -0.002
    1UNL    C16   21   0.038  -0.173   0.084
    1UNL    C17   22  -0.046  -0.199  -0.050
    1UNL     O6   23  -0.164  -0.128  -0.072
    1UNL    C18   24  -0.183   0.001  -0.019
    1UNL     O7   25  -0.233   0.093  -0.123
    1UNL    C19   26  -0.236   0.231  -0.085
    1UNL    C20   27  -0.101   0.295  -0.036
    1UNL     O8   28  -0.118   0.428   0.016
    1UNL    C21   29  -0.349   0.235   0.020
    1UNL     O9   30  -0.377   0.367   0.055
    1UNL    C22   31  -0.307   0.152   0.148
    1UNL    O10   32  -0.419   0.147   0.231
    1UNL    C23   33  -0.279   0.006   0.105
    1UNL    O11   34  -0.390  -0.075   0.073
    1UNL     H1   35  -0.266  -0.341  -0.169
    1UNL     H2   36  -0.203  -0.499  -0.127
    1UNL     H3   37  -0.249  -0.384   0.002
    1UNL     H4   38   0.035  -0.459   0.081
    1UNL     H5   39   0.060  -0.532  -0.076
    1UNL     H6   40   0.358  -0.462  -0.002
    1UNL     H7   41   0.125  -0.217  -0.327
    1UNL     H8   42   0.001   0.067  -0.147
    1UNL     H9   43   0.110   0.015  -0.277
    1UNL    H10   44   0.451   0.086  -0.071
    1UNL    H11   45   0.642   0.222  -0.008
    1UNL    H12   46   0.635   0.400   0.159
    1UNL    H13   47   0.408   0.445   0.261
    1UNL    H14   48   0.210   0.327   0.194
    1UNL    H15   49   0.255  -0.153   0.031
    1UNL    H16   50   0.025  -0.260   0.163
    1UNL    H17   51   0.042  -0.076   0.134
    1UNL    H18   52  -0.082   0.037   0.016
    1UNL    H19   53  -0.270   0.276  -0.181
    1UNL    H20   54  -0.024   0.292  -0.116
    1UNL    H21   55  -0.051   0.232   0.034
    1UNL    H22   56  -0.201   0.421   0.070
    1UNL    H23   57  -0.438   0.197  -0.023
    1UNL    H24   58  -0.461   0.376   0.112
    1UNL    H25   59  -0.229   0.203   0.202
    1UNL    H26   60  -0.486   0.094   0.182
    1UNL    H27   61  -0.219  -0.045   0.189
    1UNL    H28   62  -0.353  -0.127  -0.007
   0.00000   0.00000   0.00000   0.00000   0.00000   0.00000   0.00000   0.00000   0.00000
Generated with MDTraj, t= 57.0
 62
    1UNL     C1    1  -0.187  -0.431  -0.088
    1UNL     C2    2  -0.051  -0.366  -0.090
    1UNL     C3    3   0.071  -0.439  -0.037
    1UNL     C4    4   0.195  -0.353  -0.051
    1UNL     O1    5   0.314  -0.407   0.007
    1UNL     O2    6   0.214  -0.334  -0.200
    1UNL     C5    7   0.094  -0.262  -0.239
    1UNL     O3    8  -0.019  -0.347  -0.238
    1UNL     C6    9   0.075  -0.158  -0.124
    1UNL     C7   10   0.090  -0.005  -0.163
    1UNL     O4   11   0.213   0.046  -0.112
    1UNL     C8   12   0.192   0.118   0.002
    1UNL     O5   13   0.084   0.126   0.055
    1UNL     C9   14   0.310   0.187   0.066
    1UNL    C10   15   0.434   0.179   0.000
    1UNL    C11   16   0.544   0.250   0.046
    1UNL    C12   17   0.535   0.333   0.154
    1UNL    C13   18   0.420   0.337   0.223
    1UNL    C14   19   0.302   0.272   0.177
    1UNL    C15   20   0.166  -0.206  -0.007
    1UNL    C16   21   0.044  -0.186   0.090
    1UNL    C17   22  -0.045  -0.211  -0.034
    1UNL     O6   23  -0.169  -0.132  -0.054
    1UNL    C18   24  -0.179   0.002  -0.008
    1UNL     O7   25  -0.225   0.088  -0.117
    1UNL    C19   26  -0.245   0.221  -0.081
    1UNL    C20   27  -0.114   0.318  -0.063
    1UNL     O8   28  -0.150   0.455  -0.069
    1UNL    C21   29  -0.346   0.236   0.031
    1UNL     O9   30  -0.377   0.373   0.054
    1UNL    C22   31  -0.292   0.160   0.156
    1UNL    O10   32  -0.395   0.164   0.249
    1UNL    C23   33  -0.279   0.012   0.107
    1UNL    O11   34  -0.401  -0.044   0.066
    1UNL     H1   35  -0.260  -0.368  -0.144
    1UNL     H2   36  -0.180  -0.525  -0.134
    1UNL     H3   37  -0.226  -0.437   0.015
    1UNL     H4   38   0.056  -0.463   0.073
    1UNL     H5   39   0.089  -0.531  -0.084
    1UNL     H6   40   0.363  -0.463  -0.052
    1UNL     H7   41   0.114  -0.226  -0.333
    1UNL     H8   42   0.009   0.068  -0.135
    1UNL     H9   43   0.086   0.009  -0.274
    1UNL    H10   44   0.440   0.106  -0.075
    1UNL    H11   45   0.646   0.228   0.007
    1UNL    H12   46   0.613   0.399   0.181
    1UNL    H13   47   0.410   0.405   0.308
    1UNL    H14   48   0.211   0.291   0.231
    1UNL    H15   49   0.254  -0.143  -0.008
    1UNL    H16   50   0.050  -0.276   0.165
    1UNL    H17   51   0.048  -0.098   0.156
    1UNL    H18   52  -0.077   0.032   0.018
    1UNL    H19   53  -0.294   0.258  -0.173
    1UNL    H20   54  -0.024   0.302  -0.123
    1UNL    H21   55  -0.074   0.302   0.035
    1UNL    H22   56  -0.244   0.473  -0.046
    1UNL    H23   57  -0.440   0.192  -0.004
    1UNL    H24   58  -0.459   0.391   0.110
    1UNL    H25   59  -0.208   0.191   0.216
    1UNL    H26   60  -0.478   0.131   0.206
    1UNL    H27   61  -0.236  -0.047   0.195
    1UNL    H28   62  -0.379  -0.116   0.010
   0.00000   0.00000   0.00000   0.00000   0.00000   0.00000   0.00000   0.00000   0.00000
Generated with MDTraj, t= 58.0
 62
    1UNL     C1    1  -0.185  -0.416  -0.048
    1UNL     C2    2  -0.047  -0.352  -0.088
    1UNL     C3    3   0.077  -0.435  -0.042
    1UNL     C4    4   0.199  -0.347  -0.070
    1UNL     O1    5   0.316  -0.409  -0.011
    1UNL     O2    6   0.207  -0.330  -0.213
    1UNL     C5    7   0.086  -0.254  -0.246
    1UNL     O3    8  -0.035  -0.331  -0.226
    1UNL     C6    9   0.074  -0.150  -0.126
    1UNL     C7   10   0.084  -0.003  -0.169
    1UNL     O4   11   0.213   0.053  -0.121
    1UNL     C8   12   0.185   0.128  -0.011
    1UNL     O5   13   0.074   0.153   0.035
    1UNL     C9   14   0.300   0.195   0.063
    1UNL    C10   15   0.425   0.201   0.001
    1UNL    C11   16   0.539   0.250   0.070
    1UNL    C12   17   0.525   0.304   0.197
    1UNL    C13   18   0.404   0.304   0.252
    1UNL    C14   19   0.296   0.253   0.191
    1UNL    C15   20   0.179  -0.201  -0.016
    1UNL    C16   21   0.069  -0.182   0.084
    1UNL    C17   22  -0.035  -0.210  -0.026
    1UNL     O6   23  -0.168  -0.151  -0.026
    1UNL    C18   24  -0.183  -0.014   0.006
    1UNL     O7   25  -0.215   0.071  -0.114
    1UNL    C19   26  -0.245   0.209  -0.089
    1UNL    C20   27  -0.122   0.306  -0.109
    1UNL     O8   28  -0.167   0.436  -0.128
    1UNL    C21   29  -0.326   0.235   0.036
    1UNL     O9   30  -0.346   0.373   0.064
    1UNL    C22   31  -0.288   0.152   0.164
    1UNL    O10   32  -0.377   0.184   0.270
    1UNL    C23   33  -0.286   0.002   0.115
    1UNL    O11   34  -0.408  -0.030   0.055
    1UNL     H1   35  -0.271  -0.353  -0.070
    1UNL     H2   36  -0.191  -0.502  -0.110
    1UNL     H3   37  -0.200  -0.443   0.059
    1UNL     H4   38   0.075  -0.463   0.066
    1UNL     H5   39   0.090  -0.526  -0.093
    1UNL     H6   40   0.362  -0.457  -0.075
    1UNL     H7   41   0.084  -0.219  -0.343
    1UNL     H8   42  -0.003   0.044  -0.125
    1UNL     H9   43   0.065   0.022  -0.280
    1UNL    H10   44   0.440   0.147  -0.097
    1UNL    H11   45   0.635   0.235   0.031
    1UNL    H12   46   0.611   0.346   0.245
    1UNL    H13   47   0.398   0.341   0.351
    1UNL    H14   48   0.201   0.265   0.239
    1UNL    H15   49   0.261  -0.134   0.001
    1UNL    H16   50   0.073  -0.272   0.152
    1UNL    H17   51   0.058  -0.084   0.143
    1UNL    H18   52  -0.082   0.013   0.039
    1UNL    H19   53  -0.304   0.229  -0.178
    1UNL    H20   54  -0.073   0.277  -0.201
    1UNL    H21   55  -0.043   0.303  -0.036
    1UNL    H22   56  -0.248   0.461  -0.071
    1UNL    H23   57  -0.426   0.195   0.001
    1UNL    H24   58  -0.420   0.380   0.121
    1UNL    H25   59  -0.189   0.177   0.200
    1UNL    H26   60  -0.469   0.191   0.239
    1UNL    H27   61  -0.271  -0.063   0.207
    1UNL    H28   62  -0.395  -0.096  -0.024
   0.00000   0.00000   0.00000   0.00000   0.00000   0.00000   0.00000   0.00000   0.00000
Generated with MDTraj, t= 59.0
 62
    1UNL     C1    1  -0.162  -0.420  -0.027
    1UNL     C2    2  -0.038  -0.358  -0.078
    1UNL     C3    3   0.093  -0.430  -0.040
    1UNL     C4    4   0.213  -0.350  -0.080
    1UNL     O1    5   0.337  -0.401  -0.031
    1UNL     O2    6   0.200  -0.327  -0.230
    1UNL     C5    7   0.077  -0.254  -0.256
    1UNL     O3    8  -0.035  -0.341  -0.224
    1UNL     C6    9   0.073  -0.146  -0.137
    1UNL     C7   10   0.074   0.004  -0.174
    1UNL     O4   11   0.187   0.071  -0.118
    1UNL     C8   12   0.163   0.136   0.000
    1UNL     O5   13   0.050   0.150   0.046
    1UNL     C9   14   0.279   0.194   0.069
    1UNL    C10   15   0.408   0.205   0.007
    1UNL    C11   16   0.525   0.240   0.079
    1UNL    C12   17   0.511   0.268   0.211
    1UNL    C13   18   0.390   0.272   0.274
    1UNL    C14   19   0.280   0.233   0.206
    1UNL    C15   20   0.189  -0.195  -0.039
    1UNL    C16   21   0.085  -0.173   0.078
    1UNL    C17   22  -0.030  -0.204  -0.026
    1UNL     O6   23  -0.167  -0.149  -0.021
    1UNL    C18   24  -0.187  -0.009  -0.000
    1UNL     O7   25  -0.242   0.059  -0.114
    1UNL    C19   26  -0.247   0.203  -0.101
    1UNL    C20   27  -0.116   0.285  -0.126
    1UNL     O8   28  -0.144   0.419  -0.154
    1UNL    C21   29  -0.319   0.245   0.028
    1UNL     O9   30  -0.326   0.387   0.047
    1UNL    C22   31  -0.284   0.173   0.159
    1UNL    O10   32  -0.376   0.213   0.258
    1UNL    C23   33  -0.268   0.018   0.128
    1UNL    O11   34  -0.391  -0.038   0.110
    1UNL     H1   35  -0.248  -0.372  -0.069
    1UNL     H2   36  -0.160  -0.528  -0.052
    1UNL     H3   37  -0.166  -0.402   0.080
    1UNL     H4   38   0.080  -0.458   0.064
    1UNL     H5   39   0.105  -0.522  -0.096
    1UNL     H6   40   0.394  -0.425  -0.098
    1UNL     H7   41   0.066  -0.210  -0.348
    1UNL     H8   42  -0.019   0.047  -0.148
    1UNL     H9   43   0.082   0.005  -0.291
    1UNL    H10   44   0.424   0.179  -0.091
    1UNL    H11   45   0.628   0.253   0.036
    1UNL    H12   46   0.599   0.281   0.282
    1UNL    H13   47   0.388   0.317   0.375
    1UNL    H14   48   0.187   0.229   0.261
    1UNL    H15   49   0.265  -0.121  -0.049
    1UNL    H16   50   0.081  -0.244   0.160
    1UNL    H17   51   0.082  -0.062   0.121
    1UNL    H18   52  -0.090   0.027   0.020
    1UNL    H19   53  -0.308   0.222  -0.190
    1UNL    H20   54  -0.063   0.245  -0.213
    1UNL    H21   55  -0.053   0.273  -0.041
    1UNL    H22   56  -0.177   0.454  -0.072
    1UNL    H23   57  -0.428   0.213   0.006
    1UNL    H24   58  -0.392   0.394   0.117
    1UNL    H25   59  -0.187   0.216   0.182
    1UNL    H26   60  -0.467   0.182   0.242
    1UNL    H27   61  -0.217  -0.031   0.213
    1UNL    H28   62  -0.381  -0.101   0.030
   0.00000   0.00000   0.00000   0.00000   0.00000   0.00000   0.00000   0.00000   0.00000
Generated with MDTraj, t= 60.0
 62
    1UNL     C1    1  -0.160  -0.436  -0.033
    1UNL     C2    2  -0.033  -0.355  -0.070
    1UNL     C3    3   0.108  -0.422  -0.044
    1UNL     C4    4   0.213  -0.318  -0.092
    1UNL     O1    5   0.347  -0.357  -0.049
    1UNL     O2    6   0.189  -0.314  -0.236
    1UNL     C5    7   0.064  -0.244  -0.246
    1UNL     O3    8  -0.039  -0.341  -0.211
    1UNL     C6    9   0.060  -0.137  -0.134
    1UNL     C7   10   0.064   0.006  -0.181
    1UNL     O4   11   0.172   0.070  -0.124
    1UNL     C8   12   0.157   0.117   0.003
    1UNL     O5   13   0.046   0.133   0.050
    1UNL     C9   14   0.279   0.159   0.080
    1UNL    C10   15   0.406   0.176   0.018
    1UNL    C11   16   0.509   0.232   0.087
    1UNL    C12   17   0.496   0.265   0.217
    1UNL    C13   18   0.373   0.253   0.281
    1UNL    C14   19   0.268   0.193   0.217
    1UNL    C15   20   0.175  -0.174  -0.032
    1UNL    C16   21   0.080  -0.171   0.086
    1UNL    C17   22  -0.036  -0.203  -0.016
    1UNL     O6   23  -0.167  -0.150  -0.003
    1UNL    C18   24  -0.171  -0.008  -0.006
    1UNL     O7   25  -0.235   0.050  -0.117
    1UNL    C19   26  -0.236   0.193  -0.109
    1UNL    C20   27  -0.111   0.282  -0.125
    1UNL     O8   28  -0.149   0.419  -0.158
    1UNL    C21   29  -0.316   0.239   0.016
    1UNL     O9   30  -0.351   0.378   0.008
    1UNL    C22   31  -0.249   0.196   0.145
    1UNL    O10   32  -0.339   0.219   0.251
    1UNL    C23   33  -0.242   0.034   0.131
    1UNL    O11   34  -0.373  -0.019   0.134
    1UNL     H1   35  -0.246  -0.387  -0.071
    1UNL     H2   36  -0.153  -0.537  -0.082
    1UNL     H3   37  -0.178  -0.448   0.072
    1UNL     H4   38   0.128  -0.454   0.054
    1UNL     H5   39   0.103  -0.516  -0.102
    1UNL     H6   40   0.406  -0.309  -0.104
    1UNL     H7   41   0.068  -0.203  -0.341
    1UNL     H8   42  -0.033   0.045  -0.159
    1UNL     H9   43   0.083   0.005  -0.296
    1UNL    H10   44   0.417   0.163  -0.095
    1UNL    H11   45   0.600   0.253   0.039
    1UNL    H12   46   0.564   0.314   0.274
    1UNL    H13   47   0.354   0.295   0.379
    1UNL    H14   48   0.171   0.180   0.261
    1UNL    H15   49   0.252  -0.099  -0.031
    1UNL    H16   50   0.095  -0.254   0.156
    1UNL    H17   51   0.075  -0.070   0.144
    1UNL    H18   52  -0.068   0.030  -0.001
    1UNL    H19   53  -0.298   0.223  -0.197
    1UNL    H20   54  -0.048   0.240  -0.206
    1UNL    H21   55  -0.053   0.282  -0.036
    1UNL    H22   56  -0.237   0.431  -0.109
    1UNL    H23   57  -0.421   0.191   0.028
    1UNL    H24   58  -0.402   0.394   0.095
    1UNL    H25   59  -0.152   0.246   0.167
    1UNL    H26   60  -0.412   0.150   0.255
    1UNL    H27   61  -0.191  -0.007   0.216
    1UNL    H28   62  -0.373  -0.098   0.084
   0.00000   0.00000   0.00000   0.00000   0.00000   0.00000   0.00000   0.00000   0.00000
Generated with MDTraj, t= 61.0
 62
    1UNL     C1    1  -0.164  -0.435  -0.030
    1UNL     C2    2  -0.037  -0.354  -0.072
    1UNL     C3    3   0.101  -0.425  -0.040
    1UNL     C4    4   0.215  -0.327  -0.092
    1UNL     O1    5   0.349  -0.371  -0.045
    1UNL     O2    6   0.193  -0.314  -0.233
    1UNL     C5    7   0.068  -0.248  -0.253
    1UNL     O3    8  -0.038  -0.335  -0.222
    1UNL     C6    9   0.066  -0.143  -0.133
    1UNL     C7   10   0.073   0.008  -0.180
    1UNL     O4   11   0.185   0.072  -0.127
    1UNL     C8   12   0.166   0.142  -0.008
    1UNL     O5   13   0.055   0.156   0.043
    1UNL     C9   14   0.285   0.193   0.079
    1UNL    C10   15   0.409   0.202   0.020
    1UNL    C11   16   0.518   0.213   0.098
    1UNL    C12   17   0.512   0.233   0.236
    1UNL    C13   18   0.386   0.234   0.295
    1UNL    C14   19   0.272   0.218   0.216
    1UNL    C15   20   0.189  -0.184  -0.044
    1UNL    C16   21   0.087  -0.173   0.076
    1UNL    C17   22  -0.029  -0.205  -0.020
    1UNL     O6   23  -0.166  -0.158   0.007
    1UNL    C18   24  -0.183  -0.013   0.010
    1UNL     O7   25  -0.239   0.047  -0.108
    1UNL    C19   26  -0.253   0.190  -0.124
    1UNL    C20   27  -0.132   0.280  -0.153
    1UNL     O8   28  -0.175   0.418  -0.145
    1UNL    C21   29  -0.328   0.232   0.012
    1UNL     O9   30  -0.365   0.366   0.009
    1UNL    C22   31  -0.254   0.190   0.132
    1UNL    O10   32  -0.316   0.250   0.248
    1UNL    C23   33  -0.264   0.032   0.137
    1UNL    O11   34  -0.391  -0.021   0.137
    1UNL     H1   35  -0.251  -0.374  -0.046
    1UNL     H2   36  -0.178  -0.533  -0.080
    1UNL     H3   37  -0.160  -0.453   0.076
    1UNL     H4   38   0.119  -0.449   0.061
    1UNL     H5   39   0.105  -0.522  -0.094
    1UNL     H6   40   0.406  -0.340  -0.116
    1UNL     H7   41   0.054  -0.213  -0.349
    1UNL     H8   42  -0.017   0.072  -0.160
    1UNL     H9   43   0.085   0.004  -0.295
    1UNL    H10   44   0.424   0.182  -0.081
    1UNL    H11   45   0.621   0.222   0.060
    1UNL    H12   46   0.609   0.258   0.288
    1UNL    H13   47   0.382   0.242   0.401
    1UNL    H14   48   0.170   0.206   0.251
    1UNL    H15   49   0.271  -0.115  -0.033
    1UNL    H16   50   0.097  -0.240   0.172
    1UNL    H17   51   0.086  -0.069   0.111
    1UNL    H18   52  -0.084   0.033   0.027
    1UNL    H19   53  -0.330   0.206  -0.206
    1UNL    H20   54  -0.087   0.270  -0.256
    1UNL    H21   55  -0.052   0.265  -0.083
    1UNL    H22   56  -0.225   0.434  -0.066
    1UNL    H23   57  -0.430   0.187   0.004
    1UNL    H24   58  -0.376   0.398   0.098
    1UNL    H25   59  -0.144   0.214   0.127
    1UNL    H26   60  -0.389   0.191   0.278
    1UNL    H27   61  -0.220  -0.010   0.224
    1UNL    H28   62  -0.388  -0.121   0.129
   0.00000   0.00000   0.00000   0.00000   0.00000   0.00000   0.00000   0.00000   0.00000
Generated with MDTraj, t= 62.0
 62
    1UNL     C1    1  -0.163  -0.407  -0.023
    1UNL     C2    2  -0.040  -0.339  -0.077
    1UNL     C3    3   0.089  -0.425  -0.050
    1UNL     C4    4   0.212  -0.340  -0.086
    1UNL     O1    5   0.333  -0.403  -0.043
    1UNL     O2    6   0.206  -0.325  -0.229
    1UNL     C5    7   0.081  -0.253  -0.254
    1UNL     O3    8  -0.037  -0.327  -0.224
    1UNL     C6    9   0.086  -0.142  -0.137
    1UNL     C7   10   0.096   0.002  -0.180
    1UNL     O4   11   0.202   0.072  -0.121
    1UNL     C8   12   0.171   0.146  -0.002
    1UNL     O5   13   0.060   0.186   0.026
    1UNL     C9   14   0.287   0.173   0.082
    1UNL    C10   15   0.415   0.176   0.025
    1UNL    C11   16   0.524   0.206   0.095
    1UNL    C12   17   0.516   0.239   0.231
    1UNL    C13   18   0.393   0.241   0.288
    1UNL    C14   19   0.276   0.210   0.215
    1UNL    C15   20   0.194  -0.193  -0.032
    1UNL    C16   21   0.091  -0.175   0.084
    1UNL    C17   22  -0.016  -0.190  -0.028
    1UNL     O6   23  -0.149  -0.134  -0.007
    1UNL    C18   24  -0.164   0.006   0.009
    1UNL     O7   25  -0.247   0.056  -0.098
    1UNL    C19   26  -0.268   0.201  -0.101
    1UNL    C20   27  -0.149   0.284  -0.151
    1UNL     O8   28  -0.197   0.404  -0.207
    1UNL    C21   29  -0.347   0.246   0.029
    1UNL     O9   30  -0.380   0.381   0.024
    1UNL    C22   31  -0.280   0.191   0.154
    1UNL    O10   32  -0.362   0.216   0.276
    1UNL    C23   33  -0.246   0.036   0.142
    1UNL    O11   34  -0.365  -0.043   0.120
    1UNL     H1   35  -0.242  -0.342  -0.063
    1UNL     H2   36  -0.179  -0.510  -0.046
    1UNL     H3   37  -0.162  -0.394   0.085
    1UNL     H4   38   0.101  -0.476   0.045
    1UNL     H5   39   0.084  -0.502  -0.126
    1UNL     H6   40   0.401  -0.402  -0.115
    1UNL     H7   41   0.055  -0.214  -0.345
    1UNL     H8   42  -0.004   0.055  -0.169
    1UNL     H9   43   0.117   0.011  -0.292
    1UNL    H10   44   0.429   0.155  -0.083
    1UNL    H11   45   0.616   0.201   0.040
    1UNL    H12   46   0.610   0.260   0.272
    1UNL    H13   47   0.377   0.239   0.396
    1UNL    H14   48   0.174   0.201   0.252
    1UNL    H15   49   0.280  -0.130  -0.025
    1UNL    H16   50   0.105  -0.260   0.169
    1UNL    H17   51   0.096  -0.076   0.126
    1UNL    H18   52  -0.074   0.062   0.013
    1UNL    H19   53  -0.340   0.195  -0.189
    1UNL    H20   54  -0.094   0.227  -0.233
    1UNL    H21   55  -0.076   0.308  -0.075
    1UNL    H22   56  -0.280   0.437  -0.168
    1UNL    H23   57  -0.439   0.189   0.020
    1UNL    H24   58  -0.428   0.396   0.113
    1UNL    H25   59  -0.183   0.244   0.177
    1UNL    H26   60  -0.442   0.162   0.281
    1UNL    H27   61  -0.207  -0.010   0.228
    1UNL    H28   62  -0.378  -0.070   0.021
   0.00000   0.00000   0.00000   0.00000   0.00000   0.00000   0.00000   0.00000   0.00000
Generated with MDTraj, t= 63.0
 62
    1UNL     C1    1  -0.175  -0.404  -0.030
    1UNL     C2    2  -0.044  -0.349  -0.073
    1UNL     C3    3   0.085  -0.434  -0.035
    1UNL     C4    4   0.207  -0.346  -0.083
    1UNL     O1    5   0.334  -0.395  -0.041
    1UNL     O2    6   0.197  -0.329  -0.224
    1UNL     C5    7   0.075  -0.250  -0.253
    1UNL     O3    8  -0.039  -0.330  -0.222
    1UNL     C6    9   0.075  -0.137  -0.143
    1UNL     C7   10   0.106   0.006  -0.183
    1UNL     O4   11   0.220   0.066  -0.122
    1UNL     C8   12   0.189   0.139  -0.008
    1UNL     O5   13   0.076   0.171   0.024
    1UNL     C9   14   0.310   0.182   0.070
    1UNL    C10   15   0.441   0.171   0.030
    1UNL    C11   16   0.545   0.203   0.113
    1UNL    C12   17   0.521   0.239   0.246
    1UNL    C13   18   0.388   0.259   0.285
    1UNL    C14   19   0.285   0.235   0.191
    1UNL    C15   20   0.181  -0.192  -0.040
    1UNL    C16   21   0.082  -0.167   0.077
    1UNL    C17   22  -0.025  -0.196  -0.031
    1UNL     O6   23  -0.154  -0.137   0.000
    1UNL    C18   24  -0.165   0.005   0.007
    1UNL     O7   25  -0.228   0.056  -0.112
    1UNL    C19   26  -0.267   0.193  -0.107
    1UNL    C20   27  -0.174   0.307  -0.155
    1UNL     O8   28  -0.237   0.427  -0.176
    1UNL    C21   29  -0.340   0.233   0.022
    1UNL     O9   30  -0.366   0.376   0.033
    1UNL    C22   31  -0.283   0.182   0.149
    1UNL    O10   32  -0.381   0.208   0.249
    1UNL    C23   33  -0.249   0.033   0.140
    1UNL    O11   34  -0.366  -0.052   0.139
    1UNL     H1   35  -0.251  -0.338  -0.077
    1UNL     H2   36  -0.183  -0.502  -0.066
    1UNL     H3   37  -0.183  -0.406   0.079
    1UNL     H4   38   0.100  -0.446   0.073
    1UNL     H5   39   0.064  -0.529  -0.080
    1UNL     H6   40   0.413  -0.370  -0.102
    1UNL     H7   41   0.090  -0.218  -0.349
    1UNL     H8   42   0.008   0.068  -0.180
    1UNL     H9   43   0.127   0.006  -0.296
    1UNL    H10   44   0.462   0.158  -0.073
    1UNL    H11   45   0.649   0.200   0.079
    1UNL    H12   46   0.601   0.235   0.321
    1UNL    H13   47   0.370   0.282   0.388
    1UNL    H14   48   0.184   0.247   0.223
    1UNL    H15   49   0.265  -0.128  -0.054
    1UNL    H16   50   0.089  -0.235   0.169
    1UNL    H17   51   0.071  -0.058   0.104
    1UNL    H18   52  -0.070   0.052   0.011
    1UNL    H19   53  -0.346   0.192  -0.187
    1UNL    H20   54  -0.123   0.276  -0.253
    1UNL    H21   55  -0.096   0.332  -0.083
    1UNL    H22   56  -0.283   0.460  -0.091
    1UNL    H23   57  -0.440   0.200   0.004
    1UNL    H24   58  -0.408   0.377   0.124
    1UNL    H25   59  -0.186   0.234   0.174
    1UNL    H26   60  -0.465   0.158   0.231
    1UNL    H27   61  -0.185  -0.011   0.215
    1UNL    H28   62  -0.356  -0.123   0.075
   0.00000   0.00000   0.00000   0.00000   0.00000   0.00000   0.00000   0.00000   0.00000
Generated with MDTraj, t= 64.0
 62
    1UNL     C1    1  -0.169  -0.415  -0.042
    1UNL     C2    2  -0.038  -0.346  -0.077
    1UNL     C3    3   0.088  -0.421  -0.031
    1UNL     C4    4   0.211  -0.336  -0.084
    1UNL     O1    5   0.334  -0.395  -0.043
    1UNL     O2    6   0.200  -0.329  -0.225
    1UNL     C5    7   0.080  -0.251  -0.251
    1UNL     O3    8  -0.033  -0.334  -0.218
    1UNL     C6    9   0.079  -0.143  -0.134
    1UNL     C7   10   0.097   0.003  -0.180
    1UNL     O4   11   0.213   0.061  -0.117
    1UNL     C8   12   0.183   0.140  -0.011
    1UNL     O5   13   0.076   0.182   0.025
    1UNL     C9   14   0.303   0.171   0.071
    1UNL    C10   15   0.433   0.133   0.034
    1UNL    C11   16   0.542   0.184   0.114
    1UNL    C12   17   0.519   0.260   0.223
    1UNL    C13   18   0.387   0.290   0.265
    1UNL    C14   19   0.283   0.249   0.186
    1UNL    C15   20   0.191  -0.183  -0.031
    1UNL    C16   21   0.081  -0.174   0.082
    1UNL    C17   22  -0.027  -0.195  -0.029
    1UNL     O6   23  -0.165  -0.146  -0.005
    1UNL    C18   24  -0.176  -0.001  -0.004
    1UNL     O7   25  -0.246   0.063  -0.121
    1UNL    C19   26  -0.274   0.203  -0.108
    1UNL    C20   27  -0.145   0.298  -0.105
    1UNL     O8   28  -0.184   0.427  -0.145
    1UNL    C21   29  -0.356   0.224   0.023
    1UNL     O9   30  -0.413   0.361   0.021
    1UNL    C22   31  -0.269   0.184   0.145
    1UNL    O10   32  -0.348   0.207   0.261
    1UNL    C23   33  -0.252   0.031   0.125
    1UNL    O11   34  -0.380  -0.023   0.117
    1UNL     H1   35  -0.258  -0.353  -0.058
    1UNL     H2   36  -0.180  -0.506  -0.097
    1UNL     H3   37  -0.157  -0.448   0.061
    1UNL     H4   38   0.083  -0.461   0.073
    1UNL     H5   39   0.080  -0.507  -0.090
    1UNL     H6   40   0.409  -0.389  -0.116
    1UNL     H7   41   0.077  -0.220  -0.348
    1UNL     H8   42   0.004   0.067  -0.155
    1UNL     H9   43   0.102   0.001  -0.297
    1UNL    H10   44   0.440   0.085  -0.064
    1UNL    H11   45   0.637   0.182   0.066
    1UNL    H12   46   0.594   0.298   0.289
    1UNL    H13   47   0.360   0.343   0.357
    1UNL    H14   48   0.184   0.279   0.217
    1UNL    H15   49   0.279  -0.122  -0.019
    1UNL    H16   50   0.073  -0.244   0.166
    1UNL    H17   51   0.093  -0.068   0.136
    1UNL    H18   52  -0.081   0.050   0.006
    1UNL    H19   53  -0.331   0.228  -0.197
    1UNL    H20   54  -0.069   0.270  -0.187
    1UNL    H21   55  -0.097   0.289  -0.008
    1UNL    H22   56  -0.267   0.441  -0.100
    1UNL    H23   57  -0.446   0.166   0.013
    1UNL    H24   58  -0.457   0.362   0.104
    1UNL    H25   59  -0.170   0.231   0.169
    1UNL    H26   60  -0.435   0.162   0.251
    1UNL    H27   61  -0.198  -0.002   0.217
    1UNL    H28   62  -0.370  -0.120   0.081
   0.00000   0.00000   0.00000   0.00000   0.00000   0.00000   0.00000   0.00000   0.00000
Generated with MDTraj, t= 65.0
 62
    1UNL     C1    1  -0.166  -0.426  -0.035
    1UNL     C2    2  -0.038  -0.354  -0.087
    1UNL     C3    3   0.090  -0.424  -0.037
    1UNL     C4    4   0.214  -0.339  -0.083
    1UNL     O1    5   0.333  -0.389  -0.010
    1UNL     O2    6   0.205  -0.327  -0.222
    1UNL     C5    7   0.086  -0.244  -0.254
    1UNL     O3    8  -0.026  -0.340  -0.232
    1UNL     C6    9   0.073  -0.143  -0.140
    1UNL     C7   10   0.083   0.006  -0.185
    1UNL     O4   11   0.190   0.071  -0.120
    1UNL     C8   12   0.167   0.137  -0.002
    1UNL     O5   13   0.067   0.143   0.065
    1UNL     C9   14   0.292   0.190   0.061
    1UNL    C10   15   0.411   0.128   0.031
    1UNL    C11   16   0.532   0.165   0.106
    1UNL    C12   17   0.511   0.260   0.209
    1UNL    C13   18   0.387   0.322   0.233
    1UNL    C14   19   0.279   0.288   0.163
    1UNL    C15   20   0.186  -0.188  -0.037
    1UNL    C16   21   0.076  -0.178   0.076
    1UNL    C17   22  -0.030  -0.203  -0.036
    1UNL     O6   23  -0.163  -0.148  -0.009
    1UNL    C18   24  -0.174  -0.000   0.005
    1UNL     O7   25  -0.228   0.062  -0.118
    1UNL    C19   26  -0.251   0.209  -0.112
    1UNL    C20   27  -0.125   0.305  -0.122
    1UNL     O8   28  -0.148   0.441  -0.079
    1UNL    C21   29  -0.347   0.234   0.009
    1UNL     O9   30  -0.389   0.370   0.028
    1UNL    C22   31  -0.283   0.184   0.140
    1UNL    O10   32  -0.368   0.205   0.247
    1UNL    C23   33  -0.260   0.029   0.129
    1UNL    O11   34  -0.377  -0.048   0.119
    1UNL     H1   35  -0.255  -0.389  -0.082
    1UNL     H2   36  -0.162  -0.535  -0.052
    1UNL     H3   37  -0.172  -0.416   0.072
    1UNL     H4   38   0.082  -0.448   0.071
    1UNL     H5   39   0.090  -0.524  -0.074
    1UNL     H6   40   0.371  -0.473  -0.060
    1UNL     H7   41   0.075  -0.218  -0.353
    1UNL     H8   42  -0.018   0.053  -0.164
    1UNL     H9   43   0.113   0.012  -0.299
    1UNL    H10   44   0.415   0.057  -0.051
    1UNL    H11   45   0.632   0.130   0.077
    1UNL    H12   46   0.598   0.306   0.258
    1UNL    H13   47   0.383   0.376   0.326
    1UNL    H14   48   0.186   0.324   0.199
    1UNL    H15   49   0.268  -0.123  -0.019
    1UNL    H16   50   0.078  -0.257   0.152
    1UNL    H17   51   0.065  -0.069   0.120
    1UNL    H18   52  -0.065   0.021   0.015
    1UNL    H19   53  -0.300   0.221  -0.207
    1UNL    H20   54  -0.092   0.285  -0.230
    1UNL    H21   55  -0.044   0.276  -0.054
    1UNL    H22   56  -0.245   0.451  -0.060
    1UNL    H23   57  -0.444   0.188  -0.019
    1UNL    H24   58  -0.418   0.368   0.127
    1UNL    H25   59  -0.186   0.228   0.163
    1UNL    H26   60  -0.452   0.156   0.244
    1UNL    H27   61  -0.194  -0.011   0.214
    1UNL    H28   62  -0.379  -0.094   0.031
   0.00000   0.00000   0.00000   0.00000   0.00000   0.00000   0.00000   0.00000   0.00000
Generated with MDTraj, t= 66.0
 62
    1UNL     C1    1  -0.172  -0.421  -0.041
    1UNL     C2    2  -0.043  -0.360  -0.083
    1UNL     C3    3   0.088  -0.424  -0.038
    1UNL     C4    4   0.205  -0.330  -0.069
    1UNL     O1    5   0.328  -0.374  -0.016
    1UNL     O2    6   0.205  -0.323  -0.211
    1UNL     C5    7   0.083  -0.249  -0.245
    1UNL     O3    8  -0.022  -0.343  -0.231
    1UNL     C6    9   0.070  -0.136  -0.133
    1UNL     C7   10   0.088   0.008  -0.187
    1UNL     O4   11   0.199   0.077  -0.132
    1UNL     C8   12   0.179   0.129  -0.007
    1UNL     O5   13   0.076   0.117   0.056
    1UNL     C9   14   0.301   0.182   0.057
    1UNL    C10   15   0.425   0.124   0.038
    1UNL    C11   16   0.538   0.177   0.104
    1UNL    C12   17   0.515   0.295   0.184
    1UNL    C13   18   0.391   0.349   0.203
    1UNL    C14   19   0.282   0.294   0.139
    1UNL    C15   20   0.167  -0.184  -0.016
    1UNL    C16   21   0.052  -0.175   0.091
    1UNL    C17   22  -0.041  -0.201  -0.032
    1UNL     O6   23  -0.172  -0.146  -0.028
    1UNL    C18   24  -0.182  -0.007   0.005
    1UNL     O7   25  -0.217   0.071  -0.113
    1UNL    C19   26  -0.234   0.215  -0.084
    1UNL    C20   27  -0.101   0.298  -0.062
    1UNL     O8   28  -0.110   0.437  -0.098
    1UNL    C21   29  -0.340   0.235   0.019
    1UNL     O9   30  -0.370   0.373   0.044
    1UNL    C22   31  -0.297   0.161   0.148
    1UNL    O10   32  -0.397   0.182   0.242
    1UNL    C23   33  -0.285   0.007   0.117
    1UNL    O11   34  -0.404  -0.062   0.091
    1UNL     H1   35  -0.252  -0.365  -0.080
    1UNL     H2   36  -0.178  -0.522  -0.089
    1UNL     H3   37  -0.175  -0.434   0.066
    1UNL     H4   38   0.087  -0.470   0.060
    1UNL     H5   39   0.094  -0.510  -0.104
    1UNL     H6   40   0.377  -0.424  -0.094
    1UNL     H7   41   0.098  -0.211  -0.338
    1UNL     H8   42  -0.006   0.061  -0.166
    1UNL     H9   43   0.112   0.007  -0.303
    1UNL    H10   44   0.431   0.046  -0.032
    1UNL    H11   45   0.634   0.135   0.082
    1UNL    H12   46   0.595   0.333   0.241
    1UNL    H13   47   0.374   0.429   0.274
    1UNL    H14   48   0.182   0.320   0.178
    1UNL    H15   49   0.247  -0.114  -0.006
    1UNL    H16   50   0.048  -0.264   0.167
    1UNL    H17   51   0.032  -0.075   0.128
    1UNL    H18   52  -0.085   0.022   0.046
    1UNL    H19   53  -0.268   0.261  -0.176
    1UNL    H20   54  -0.011   0.273  -0.124
    1UNL    H21   55  -0.072   0.282   0.041
    1UNL    H22   56  -0.191   0.483  -0.064
    1UNL    H23   57  -0.439   0.209  -0.030
    1UNL    H24   58  -0.382   0.375   0.142
    1UNL    H25   59  -0.206   0.200   0.192
    1UNL    H26   60  -0.470   0.115   0.243
    1UNL    H27   61  -0.251  -0.036   0.219
    1UNL    H28   62  -0.399  -0.111   0.005
   0.00000   0.00000   0.00000   0.00000   0.00000   0.00000   0.00000   0.00000   0.00000
Generated with MDTraj, t= 67.0
 62
    1UNL     C1    1  -0.184  -0.431  -0.065
    1UNL     C2    2  -0.048  -0.359  -0.084
    1UNL     C3    3   0.082  -0.439  -0.026
    1UNL     C4    4   0.204  -0.347  -0.057
    1UNL     O1    5   0.333  -0.390  -0.008
    1UNL     O2    6   0.211  -0.326  -0.204
    1UNL     C5    7   0.092  -0.267  -0.243
    1UNL     O3    8  -0.016  -0.348  -0.222
    1UNL     C6    9   0.075  -0.148  -0.132
    1UNL     C7   10   0.084   0.004  -0.171
    1UNL     O4   11   0.202   0.077  -0.130
    1UNL     C8   12   0.192   0.124   0.002
    1UNL     O5   13   0.091   0.125   0.071
    1UNL     C9   14   0.314   0.190   0.054
    1UNL    C10   15   0.443   0.140   0.030
    1UNL    C11   16   0.547   0.205   0.083
    1UNL    C12   17   0.532   0.321   0.158
    1UNL    C13   18   0.406   0.379   0.177
    1UNL    C14   19   0.296   0.302   0.130
    1UNL    C15   20   0.170  -0.195  -0.015
    1UNL    C16   21   0.055  -0.182   0.080
    1UNL    C17   22  -0.041  -0.207  -0.040
    1UNL     O6   23  -0.177  -0.152  -0.019
    1UNL    C18   24  -0.192  -0.012   0.007
    1UNL     O7   25  -0.221   0.074  -0.108
    1UNL    C19   26  -0.238   0.222  -0.081
    1UNL    C20   27  -0.103   0.298  -0.063
    1UNL     O8   28  -0.115   0.432  -0.049
    1UNL    C21   29  -0.339   0.249   0.036
    1UNL     O9   30  -0.336   0.380   0.083
    1UNL    C22   31  -0.319   0.154   0.155
    1UNL    O10   32  -0.443   0.155   0.221
    1UNL    C23   33  -0.312   0.000   0.101
    1UNL    O11   34  -0.428  -0.020   0.029
    1UNL     H1   35  -0.263  -0.369  -0.100
    1UNL     H2   36  -0.192  -0.527  -0.119
    1UNL     H3   37  -0.197  -0.456   0.039
    1UNL     H4   38   0.069  -0.470   0.074
    1UNL     H5   39   0.087  -0.537  -0.078
    1UNL     H6   40   0.368  -0.465  -0.068
    1UNL     H7   41   0.096  -0.233  -0.340
    1UNL     H8   42   0.000   0.057  -0.135
    1UNL     H9   43   0.083   0.011  -0.290
    1UNL    H10   44   0.440   0.073  -0.056
    1UNL    H11   45   0.650   0.176   0.059
    1UNL    H12   46   0.623   0.359   0.208
    1UNL    H13   47   0.387   0.459   0.245
    1UNL    H14   48   0.200   0.342   0.142
    1UNL    H15   49   0.262  -0.144   0.006
    1UNL    H16   50   0.044  -0.255   0.174
    1UNL    H17   51   0.056  -0.089   0.128
    1UNL    H18   52  -0.104   0.017   0.062
    1UNL    H19   53  -0.274   0.261  -0.180
    1UNL    H20   54  -0.034   0.264  -0.140
    1UNL    H21   55  -0.052   0.270   0.028
    1UNL    H22   56  -0.193   0.452   0.001
    1UNL    H23   57  -0.444   0.233  -0.005
    1UNL    H24   58  -0.353   0.368   0.175
    1UNL    H25   59  -0.230   0.165   0.216
    1UNL    H26   60  -0.502   0.084   0.185
    1UNL    H27   61  -0.305  -0.082   0.181
    1UNL    H28   62  -0.405  -0.068  -0.059
   0.00000   0.00000   0.00000   0.00000   0.00000   0.00000   0.00000   0.00000   0.00000
Generated with MDTraj, t= 68.0
 62
    1UNL     C1    1  -0.190  -0.410  -0.059
    1UNL     C2    2  -0.049  -0.358  -0.084
    1UNL     C3    3   0.073  -0.439  -0.030
    1UNL     C4    4   0.197  -0.349  -0.048
    1UNL     O1    5   0.313  -0.414   0.017
    1UNL     O2    6   0.216  -0.330  -0.196
    1UNL     C5    7   0.102  -0.258  -0.236
    1UNL     O3    8  -0.024  -0.338  -0.232
    1UNL     C6    9   0.078  -0.154  -0.119
    1UNL     C7   10   0.088  -0.000  -0.151
    1UNL     O4   11   0.209   0.069  -0.112
    1UNL     C8   12   0.194   0.123   0.013
    1UNL     O5   13   0.098   0.118   0.090
    1UNL     C9   14   0.317   0.192   0.049
    1UNL    C10   15   0.443   0.159  -0.002
    1UNL    C11   16   0.551   0.224   0.040
    1UNL    C12   17   0.537   0.341   0.116
    1UNL    C13   18   0.405   0.381   0.150
    1UNL    C14   19   0.296   0.306   0.118
    1UNL    C15   20   0.167  -0.203  -0.001
    1UNL    C16   21   0.038  -0.191   0.097
    1UNL    C17   22  -0.043  -0.207  -0.032
    1UNL     O6   23  -0.181  -0.150  -0.047
    1UNL    C18   24  -0.193  -0.012   0.000
    1UNL     O7   25  -0.197   0.087  -0.107
    1UNL    C19   26  -0.214   0.228  -0.064
    1UNL    C20   27  -0.094   0.305  -0.003
    1UNL     O8   28  -0.101   0.439  -0.017
    1UNL    C21   29  -0.338   0.239   0.027
    1UNL     O9   30  -0.345   0.367   0.094
    1UNL    C22   31  -0.334   0.133   0.136
    1UNL    O10   32  -0.446   0.136   0.225
    1UNL    C23   33  -0.325  -0.009   0.073
    1UNL    O11   34  -0.428  -0.022  -0.020
    1UNL     H1   35  -0.250  -0.359  -0.136
    1UNL     H2   36  -0.192  -0.514  -0.083
    1UNL     H3   37  -0.232  -0.399   0.041
    1UNL     H4   38   0.064  -0.461   0.072
    1UNL     H5   39   0.085  -0.535  -0.085
    1UNL     H6   40   0.391  -0.385  -0.039
    1UNL     H7   41   0.109  -0.216  -0.329
    1UNL     H8   42   0.008   0.061  -0.111
    1UNL     H9   43   0.079   0.023  -0.268
    1UNL    H10   44   0.452   0.085  -0.082
    1UNL    H11   45   0.644   0.204  -0.012
    1UNL    H12   46   0.628   0.386   0.149
    1UNL    H13   47   0.400   0.466   0.217
    1UNL    H14   48   0.194   0.326   0.154
    1UNL    H15   49   0.248  -0.138   0.025
    1UNL    H16   50   0.034  -0.274   0.171
    1UNL    H17   51   0.030  -0.098   0.152
    1UNL    H18   52  -0.113   0.019   0.066
    1UNL    H19   53  -0.232   0.286  -0.160
    1UNL    H20   54   0.001   0.275  -0.040
    1UNL    H21   55  -0.089   0.271   0.098
    1UNL    H22   56  -0.188   0.468   0.025
    1UNL    H23   57  -0.430   0.239  -0.036
    1UNL    H24   58  -0.354   0.343   0.192
    1UNL    H25   59  -0.244   0.153   0.194
    1UNL    H26   60  -0.520   0.084   0.186
    1UNL    H27   61  -0.347  -0.087   0.150
    1UNL    H28   62  -0.400  -0.081  -0.090
   0.00000   0.00000   0.00000   0.00000   0.00000   0.00000   0.00000   0.00000   0.00000
Generated with MDTraj, t= 69.0
 62
    1UNL     C1    1  -0.184  -0.435  -0.082
    1UNL     C2    2  -0.052  -0.358  -0.101
    1UNL     C3    3   0.064  -0.444  -0.026
    1UNL     C4    4   0.185  -0.352  -0.030
    1UNL     O1    5   0.292  -0.410   0.052
    1UNL     O2    6   0.219  -0.342  -0.177
    1UNL     C5    7   0.109  -0.261  -0.233
    1UNL     O3    8  -0.009  -0.342  -0.235
    1UNL     C6    9   0.081  -0.149  -0.124
    1UNL     C7   10   0.099   0.000  -0.163
    1UNL     O4   11   0.222   0.052  -0.119
    1UNL     C8   12   0.210   0.110   0.004
    1UNL     O5   13   0.117   0.102   0.086
    1UNL     C9   14   0.327   0.190   0.035
    1UNL    C10   15   0.450   0.173  -0.027
    1UNL    C11   16   0.553   0.261   0.001
    1UNL    C12   17   0.536   0.365   0.087
    1UNL    C13   18   0.412   0.388   0.141
    1UNL    C14   19   0.307   0.303   0.121
    1UNL    C15   20   0.150  -0.206   0.007
    1UNL    C16   21   0.022  -0.198   0.096
    1UNL    C17   22  -0.051  -0.208  -0.045
    1UNL     O6   23  -0.174  -0.140  -0.062
    1UNL    C18   24  -0.188  -0.004  -0.006
    1UNL     O7   25  -0.185   0.102  -0.103
    1UNL    C19   26  -0.203   0.235  -0.045
    1UNL    C20   27  -0.085   0.294   0.028
    1UNL     O8   28  -0.087   0.430   0.081
    1UNL    C21   29  -0.342   0.243   0.030
    1UNL     O9   30  -0.376   0.376   0.082
    1UNL    C22   31  -0.350   0.138   0.134
    1UNL    O10   32  -0.485   0.149   0.193
    1UNL    C23   33  -0.323  -0.002   0.069
    1UNL    O11   34  -0.433  -0.037  -0.009
    1UNL     H1   35  -0.267  -0.369  -0.112
    1UNL     H2   36  -0.185  -0.520  -0.142
    1UNL     H3   37  -0.196  -0.468   0.021
    1UNL     H4   38   0.030  -0.456   0.076
    1UNL     H5   39   0.094  -0.539  -0.074
    1UNL     H6   40   0.315  -0.494   0.012
    1UNL     H7   41   0.132  -0.219  -0.323
    1UNL     H8   42   0.013   0.069  -0.130
    1UNL     H9   43   0.099   0.013  -0.280
    1UNL    H10   44   0.459   0.104  -0.107
    1UNL    H11   45   0.644   0.244  -0.052
    1UNL    H12   46   0.616   0.438   0.093
    1UNL    H13   47   0.406   0.461   0.219
    1UNL    H14   48   0.215   0.288   0.172
    1UNL    H15   49   0.233  -0.152   0.047
    1UNL    H16   50   0.008  -0.289   0.141
    1UNL    H17   51  -0.005  -0.105   0.159
    1UNL    H18   52  -0.110   0.023   0.064
    1UNL    H19   53  -0.212   0.299  -0.138
    1UNL    H20   54  -0.006   0.286  -0.045
    1UNL    H21   55  -0.042   0.232   0.102
    1UNL    H22   56  -0.179   0.463   0.087
    1UNL    H23   57  -0.427   0.220  -0.035
    1UNL    H24   58  -0.415   0.357   0.172
    1UNL    H25   59  -0.277   0.164   0.213
    1UNL    H26   60  -0.531   0.067   0.169
    1UNL    H27   61  -0.316  -0.080   0.145
    1UNL    H28   62  -0.398  -0.026  -0.101
   0.00000   0.00000   0.00000   0.00000   0.00000   0.00000   0.00000   0.00000   0.00000
Generated with MDTraj, t= 70.0
 62
    1UNL     C1    1  -0.204  -0.404  -0.113
    1UNL     C2    2  -0.060  -0.351  -0.103
    1UNL     C3    3   0.038  -0.439  -0.012
    1UNL     C4    4   0.174  -0.366  -0.011
    1UNL     O1    5   0.287  -0.422   0.058
    1UNL     O2    6   0.212  -0.353  -0.158
    1UNL     C5    7   0.121  -0.267  -0.218
    1UNL     O3    8   0.001  -0.338  -0.235
    1UNL     C6    9   0.091  -0.153  -0.106
    1UNL     C7   10   0.102  -0.007  -0.168
    1UNL     O4   11   0.218   0.071  -0.143
    1UNL     C8   12   0.226   0.110  -0.015
    1UNL     O5   13   0.150   0.081   0.078
    1UNL     C9   14   0.340   0.202   0.016
    1UNL    C10   15   0.458   0.197  -0.058
    1UNL    C11   16   0.555   0.290  -0.029
    1UNL    C12   17   0.540   0.382   0.070
    1UNL    C13   18   0.420   0.386   0.147
    1UNL    C14   19   0.324   0.295   0.116
    1UNL    C15   20   0.158  -0.213   0.030
    1UNL    C16   21   0.023  -0.186   0.100
    1UNL    C17   22  -0.051  -0.200  -0.038
    1UNL     O6   23  -0.172  -0.134  -0.072
    1UNL    C18   24  -0.194  -0.003  -0.002
    1UNL     O7   25  -0.181   0.110  -0.094
    1UNL    C19   26  -0.195   0.239  -0.033
    1UNL    C20   27  -0.094   0.255   0.073
    1UNL     O8   28  -0.097   0.385   0.138
    1UNL    C21   29  -0.346   0.242   0.022
    1UNL     O9   30  -0.376   0.376   0.063
    1UNL    C22   31  -0.368   0.140   0.130
    1UNL    O10   32  -0.508   0.150   0.169
    1UNL    C23   33  -0.330  -0.002   0.073
    1UNL    O11   34  -0.428  -0.040  -0.022
    1UNL     H1   35  -0.255  -0.342  -0.187
    1UNL     H2   36  -0.196  -0.504  -0.150
    1UNL     H3   37  -0.259  -0.407  -0.020
    1UNL     H4   38  -0.012  -0.447   0.090
    1UNL     H5   39   0.057  -0.535  -0.057
    1UNL     H6   40   0.332  -0.476  -0.003
    1UNL     H7   41   0.165  -0.233  -0.304
    1UNL     H8   42   0.004   0.050  -0.140
    1UNL     H9   43   0.092  -0.022  -0.280
    1UNL    H10   44   0.480   0.134  -0.145
    1UNL    H11   45   0.642   0.314  -0.094
    1UNL    H12   46   0.612   0.455   0.098
    1UNL    H13   47   0.412   0.449   0.236
    1UNL    H14   48   0.242   0.287   0.189
    1UNL    H15   49   0.252  -0.173   0.064
    1UNL    H16   50  -0.003  -0.259   0.169
    1UNL    H17   51   0.016  -0.089   0.159
    1UNL    H18   52  -0.114   0.014   0.068
    1UNL    H19   53  -0.178   0.312  -0.115
    1UNL    H20   54   0.009   0.237   0.045
    1UNL    H21   55  -0.109   0.181   0.148
    1UNL    H22   56  -0.186   0.420   0.136
    1UNL    H23   57  -0.416   0.213  -0.055
    1UNL    H24   58  -0.437   0.374   0.134
    1UNL    H25   59  -0.308   0.166   0.220
    1UNL    H26   60  -0.536   0.056   0.159
    1UNL    H27   61  -0.334  -0.080   0.146
    1UNL    H28   62  -0.379  -0.037  -0.114
   0.00000   0.00000   0.00000   0.00000   0.00000   0.00000   0.00000   0.00000   0.00000
Generated with MDTraj, t= 71.0
 62
    1UNL     C1    1  -0.210  -0.412  -0.094
    1UNL     C2    2  -0.062  -0.353  -0.089
    1UNL     C3    3   0.046  -0.436  -0.021
    1UNL     C4    4   0.178  -0.356  -0.015
    1UNL     O1    5   0.282  -0.404   0.070
    1UNL     O2    6   0.211  -0.356  -0.158
    1UNL     C5    7   0.118  -0.272  -0.215
    1UNL     O3    8  -0.015  -0.339  -0.224
    1UNL     C6    9   0.084  -0.157  -0.107
    1UNL     C7   10   0.100  -0.012  -0.155
    1UNL     O4   11   0.227   0.044  -0.126
    1UNL     C8   12   0.237   0.109  -0.009
    1UNL     O5   13   0.154   0.104   0.081
    1UNL     C9   14   0.345   0.207   0.007
    1UNL    C10   15   0.453   0.221  -0.089
    1UNL    C11   16   0.551   0.318  -0.065
    1UNL    C12   17   0.541   0.386   0.049
    1UNL    C13   18   0.448   0.374   0.144
    1UNL    C14   19   0.346   0.282   0.122
    1UNL    C15   20   0.148  -0.208   0.023
    1UNL    C16   21   0.011  -0.182   0.094
    1UNL    C17   22  -0.052  -0.202  -0.044
    1UNL     O6   23  -0.172  -0.130  -0.075
    1UNL    C18   24  -0.202  -0.014   0.006
    1UNL     O7   25  -0.154   0.101  -0.068
    1UNL    C19   26  -0.172   0.230  -0.001
    1UNL    C20   27  -0.092   0.264   0.128
    1UNL     O8   28  -0.117   0.401   0.162
    1UNL    C21   29  -0.332   0.238   0.024
    1UNL     O9   30  -0.356   0.360   0.086
    1UNL    C22   31  -0.386   0.125   0.113
    1UNL    O10   32  -0.525   0.135   0.130
    1UNL    C23   33  -0.352  -0.006   0.044
    1UNL    O11   34  -0.431  -0.023  -0.076
    1UNL     H1   35  -0.268  -0.360  -0.166
    1UNL     H2   36  -0.199  -0.517  -0.127
    1UNL     H3   37  -0.266  -0.415  -0.004
    1UNL     H4   38   0.007  -0.471   0.081
    1UNL     H5   39   0.065  -0.520  -0.085
    1UNL     H6   40   0.305  -0.489   0.042
    1UNL     H7   41   0.148  -0.244  -0.309
    1UNL     H8   42   0.021   0.047  -0.094
    1UNL     H9   43   0.072   0.003  -0.263
    1UNL    H10   44   0.446   0.168  -0.181
    1UNL    H11   45   0.611   0.353  -0.146
    1UNL    H12   46   0.617   0.459   0.080
    1UNL    H13   47   0.454   0.423   0.237
    1UNL    H14   48   0.270   0.261   0.192
    1UNL    H15   49   0.236  -0.158   0.061
    1UNL    H16   50   0.001  -0.266   0.164
    1UNL    H17   51   0.002  -0.091   0.148
    1UNL    H18   52  -0.149  -0.012   0.097
    1UNL    H19   53  -0.143   0.297  -0.081
    1UNL    H20   54   0.016   0.260   0.113
    1UNL    H21   55  -0.118   0.199   0.210
    1UNL    H22   56  -0.213   0.425   0.147
    1UNL    H23   57  -0.391   0.237  -0.066
    1UNL    H24   58  -0.442   0.360   0.130
    1UNL    H25   59  -0.354   0.136   0.220
    1UNL    H26   60  -0.557   0.066   0.067
    1UNL    H27   61  -0.390  -0.086   0.101
    1UNL    H28   62  -0.372  -0.041  -0.150
   0.00000   0.00000   0.00000   0.00000   0.00000   0.00000   0.00000   0.00000   0.00000
Generated with MDTraj, t= 72.0
 62
    1UNL     C1    1  -0.183  -0.424  -0.053
    1UNL     C2    2  -0.049  -0.355  -0.080
    1UNL     C3    3   0.063  -0.445  -0.015
    1UNL     C4    4   0.198  -0.364  -0.016
    1UNL     O1    5   0.304  -0.418   0.075
    1UNL     O2    6   0.221  -0.352  -0.163
    1UNL     C5    7   0.106  -0.265  -0.216
    1UNL     O3    8  -0.017  -0.335  -0.220
    1UNL     C6    9   0.078  -0.159  -0.105
    1UNL     C7   10   0.094  -0.013  -0.144
    1UNL     O4   11   0.217   0.050  -0.119
    1UNL     C8   12   0.231   0.113  -0.002
    1UNL     O5   13   0.150   0.110   0.091
    1UNL     C9   14   0.349   0.203   0.007
    1UNL    C10   15   0.426   0.224  -0.109
    1UNL    C11   16   0.528   0.318  -0.105
    1UNL    C12   17   0.551   0.378   0.023
    1UNL    C13   18   0.480   0.348   0.133
    1UNL    C14   19   0.376   0.266   0.127
    1UNL    C15   20   0.165  -0.217   0.014
    1UNL    C16   21   0.036  -0.188   0.103
    1UNL    C17   22  -0.049  -0.206  -0.022
    1UNL     O6   23  -0.177  -0.128  -0.054
    1UNL    C18   24  -0.219  -0.007   0.005
    1UNL     O7   25  -0.159   0.102  -0.049
    1UNL    C19   26  -0.192   0.223   0.022
    1UNL    C20   27  -0.110   0.245   0.148
    1UNL     O8   28  -0.112   0.376   0.197
    1UNL    C21   29  -0.344   0.248   0.036
    1UNL     O9   30  -0.367   0.355   0.118
    1UNL    C22   31  -0.422   0.126   0.087
    1UNL    O10   32  -0.557   0.149   0.080
    1UNL    C23   33  -0.374   0.011  -0.002
    1UNL    O11   34  -0.401   0.041  -0.141
    1UNL     H1   35  -0.269  -0.367  -0.076
    1UNL     H2   36  -0.183  -0.518  -0.113
    1UNL     H3   37  -0.195  -0.457   0.048
    1UNL     H4   38   0.028  -0.485   0.084
    1UNL     H5   39   0.089  -0.532  -0.077
    1UNL     H6   40   0.387  -0.416   0.036
    1UNL     H7   41   0.129  -0.231  -0.310
    1UNL     H8   42   0.027   0.053  -0.080
    1UNL     H9   43   0.068   0.005  -0.253
    1UNL    H10   44   0.402   0.195  -0.212
    1UNL    H11   45   0.583   0.353  -0.193
    1UNL    H12   46   0.624   0.454   0.025
    1UNL    H13   47   0.514   0.390   0.229
    1UNL    H14   48   0.322   0.239   0.222
    1UNL    H15   49   0.254  -0.158   0.022
    1UNL    H16   50   0.021  -0.266   0.182
    1UNL    H17   51   0.040  -0.093   0.144
    1UNL    H18   52  -0.193  -0.015   0.107
    1UNL    H19   53  -0.158   0.300  -0.043
    1UNL    H20   54  -0.007   0.236   0.114
    1UNL    H21   55  -0.138   0.177   0.230
    1UNL    H22   56  -0.202   0.408   0.193
    1UNL    H23   57  -0.386   0.274  -0.061
    1UNL    H24   58  -0.467   0.380   0.112
    1UNL    H25   59  -0.401   0.109   0.194
    1UNL    H26   60  -0.585   0.099   0.001
    1UNL    H27   61  -0.410  -0.087   0.022
    1UNL    H28   62  -0.317   0.029  -0.183
   0.00000   0.00000   0.00000   0.00000   0.00000   0.00000   0.00000   0.00000   0.00000
Generated with MDTraj, t= 73.0
 62
    1UNL     C1    1  -0.188  -0.431  -0.048
    1UNL     C2    2  -0.060  -0.355  -0.062
    1UNL     C3    3   0.062  -0.422   0.012
    1UNL     C4    4   0.188  -0.324  -0.007
    1UNL     O1    5   0.304  -0.370   0.052
    1UNL     O2    6   0.205  -0.331  -0.152
    1UNL     C5    7   0.096  -0.257  -0.206
    1UNL     O3    8  -0.021  -0.339  -0.201
    1UNL     C6    9   0.073  -0.140  -0.098
    1UNL     C7   10   0.076  -0.002  -0.149
    1UNL     O4   11   0.196   0.062  -0.142
    1UNL     C8   12   0.233   0.108  -0.016
    1UNL     O5   13   0.174   0.087   0.090
    1UNL     C9   14   0.352   0.197  -0.011
    1UNL    C10   15   0.412   0.239  -0.127
    1UNL    C11   16   0.526   0.318  -0.114
    1UNL    C12   17   0.573   0.362   0.008
    1UNL    C13   18   0.513   0.325   0.120
    1UNL    C14   19   0.398   0.247   0.112
    1UNL    C15   20   0.149  -0.176   0.037
    1UNL    C16   21   0.009  -0.162   0.114
    1UNL    C17   22  -0.057  -0.198  -0.020
    1UNL     O6   23  -0.173  -0.136  -0.062
    1UNL    C18   24  -0.215  -0.022   0.006
    1UNL     O7   25  -0.137   0.093  -0.019
    1UNL    C19   26  -0.175   0.215   0.050
    1UNL    C20   27  -0.114   0.215   0.192
    1UNL     O8   28  -0.125   0.338   0.255
    1UNL    C21   29  -0.330   0.239   0.040
    1UNL     O9   30  -0.376   0.347   0.119
    1UNL    C22   31  -0.426   0.115   0.049
    1UNL    O10   32  -0.560   0.154   0.030
    1UNL    C23   33  -0.371  -0.002  -0.029
    1UNL    O11   34  -0.370   0.027  -0.171
    1UNL     H1   35  -0.247  -0.399  -0.131
    1UNL     H2   36  -0.163  -0.536  -0.059
    1UNL     H3   37  -0.247  -0.418   0.042
    1UNL     H4   38   0.036  -0.452   0.113
    1UNL     H5   39   0.091  -0.520  -0.039
    1UNL     H6   40   0.384  -0.347   0.002
    1UNL     H7   41   0.118  -0.226  -0.301
    1UNL     H8   42   0.018   0.065  -0.081
    1UNL     H9   43   0.052   0.002  -0.262
    1UNL    H10   44   0.375   0.199  -0.218
    1UNL    H11   45   0.578   0.356  -0.198
    1UNL    H12   46   0.660   0.432   0.009
    1UNL    H13   47   0.555   0.336   0.218
    1UNL    H14   48   0.359   0.198   0.194
    1UNL    H15   49   0.223  -0.105   0.066
    1UNL    H16   50  -0.012  -0.240   0.191
    1UNL    H17   51  -0.010  -0.062   0.140
    1UNL    H18   52  -0.220  -0.041   0.110
    1UNL    H19   53  -0.129   0.299   0.006
    1UNL    H20   54  -0.004   0.197   0.187
    1UNL    H21   55  -0.172   0.142   0.254
    1UNL    H22   56  -0.217   0.367   0.245
    1UNL    H23   57  -0.342   0.276  -0.064
    1UNL    H24   58  -0.463   0.376   0.087
    1UNL    H25   59  -0.437   0.089   0.156
    1UNL    H26   60  -0.589   0.117  -0.056
    1UNL    H27   61  -0.436  -0.088  -0.009
    1UNL    H28   62  -0.286  -0.007  -0.216
   0.00000   0.00000   0.00000   0.00000   0.00000   0.00000   0.00000   0.00000   0.00000
Generated with MDTraj, t= 74.0
 62
    1UNL     C1    1  -0.179  -0.434  -0.065
    1UNL     C2    2  -0.048  -0.356  -0.073
    1UNL     C3    3   0.060  -0.415   0.026
    1UNL     C4    4   0.190  -0.314   0.011
    1UNL     O1    5   0.304  -0.347   0.095
    1UNL     O2    6   0.229  -0.315  -0.128
    1UNL     C5    7   0.124  -0.252  -0.199
    1UNL     O3    8   0.017  -0.350  -0.208
    1UNL     C6    9   0.066  -0.138  -0.105
    1UNL     C7   10   0.079  -0.000  -0.172
    1UNL     O4   11   0.204   0.067  -0.167
    1UNL     C8   12   0.238   0.121  -0.042
    1UNL     O5   13   0.163   0.120   0.053
    1UNL     C9   14   0.370   0.191  -0.035
    1UNL    C10   15   0.436   0.244  -0.143
    1UNL    C11   16   0.543   0.323  -0.129
    1UNL    C12   17   0.599   0.353  -0.007
    1UNL    C13   18   0.531   0.295   0.101
    1UNL    C14   19   0.424   0.210   0.088
    1UNL    C15   20   0.142  -0.166   0.027
    1UNL    C16   21   0.012  -0.146   0.102
    1UNL    C17   22  -0.064  -0.198  -0.029
    1UNL     O6   23  -0.201  -0.149  -0.053
    1UNL    C18   24  -0.242  -0.032   0.018
    1UNL     O7   25  -0.147   0.075   0.011
    1UNL    C19   26  -0.180   0.193   0.088
    1UNL    C20   27  -0.177   0.165   0.241
    1UNL     O8   28  -0.185   0.293   0.306
    1UNL    C21   29  -0.320   0.243   0.037
    1UNL     O9   30  -0.364   0.355   0.118
    1UNL    C22   31  -0.436   0.139   0.047
    1UNL    O10   32  -0.550   0.201  -0.011
    1UNL    C23   33  -0.390   0.006  -0.015
    1UNL    O11   34  -0.393   0.028  -0.158
    1UNL     H1   35  -0.251  -0.368  -0.115
    1UNL     H2   36  -0.178  -0.533  -0.100
    1UNL     H3   37  -0.214  -0.432   0.039
    1UNL     H4   38   0.022  -0.415   0.124
    1UNL     H5   39   0.079  -0.526   0.002
    1UNL     H6   40   0.390  -0.321   0.049
    1UNL     H7   41   0.155  -0.223  -0.293
    1UNL     H8   42   0.012   0.071  -0.121
    1UNL     H9   43   0.060  -0.017  -0.287
    1UNL    H10   44   0.392   0.224  -0.242
    1UNL    H11   45   0.583   0.369  -0.221
    1UNL    H12   46   0.676   0.419   0.016
    1UNL    H13   47   0.575   0.303   0.200
    1UNL    H14   48   0.382   0.162   0.181
    1UNL    H15   49   0.224  -0.104   0.055
    1UNL    H16   50   0.004  -0.197   0.196
    1UNL    H17   51  -0.002  -0.039   0.122
    1UNL    H18   52  -0.230  -0.069   0.115
    1UNL    H19   53  -0.104   0.267   0.069
    1UNL    H20   54  -0.080   0.117   0.273
    1UNL    H21   55  -0.264   0.106   0.283
    1UNL    H22   56  -0.262   0.336   0.257
    1UNL    H23   57  -0.307   0.262  -0.072
    1UNL    H24   58  -0.438   0.399   0.081
    1UNL    H25   59  -0.455   0.121   0.152
    1UNL    H26   60  -0.554   0.170  -0.106
    1UNL    H27   61  -0.452  -0.087   0.003
    1UNL    H28   62  -0.316  -0.017  -0.204
   0.00000   0.00000   0.00000   0.00000   0.00000   0.00000   0.00000   0.00000   0.00000
Generated with MDTraj, t= 75.0
 62
    1UNL     C1    1  -0.170  -0.420  -0.059
    1UNL     C2    2  -0.039  -0.343  -0.066
    1UNL     C3    3   0.077  -0.403   0.020
    1UNL     C4    4   0.188  -0.296   0.022
    1UNL     O1    5   0.284  -0.341   0.125
    1UNL     O2    6   0.242  -0.293  -0.106
    1UNL     C5    7   0.132  -0.245  -0.191
    1UNL     O3    8   0.026  -0.343  -0.200
    1UNL     C6    9   0.071  -0.128  -0.096
    1UNL     C7   10   0.059   0.014  -0.154
    1UNL     O4   11   0.185   0.071  -0.176
    1UNL     C8   12   0.225   0.140  -0.056
    1UNL     O5   13   0.157   0.148   0.045
    1UNL     C9   14   0.360   0.204  -0.059
    1UNL    C10   15   0.432   0.247  -0.169
    1UNL    C11   16   0.561   0.298  -0.159
    1UNL    C12   17   0.622   0.308  -0.037
    1UNL    C13   18   0.550   0.255   0.073
    1UNL    C14   19   0.425   0.203   0.060
    1UNL    C15   20   0.130  -0.152   0.045
    1UNL    C16   21  -0.014  -0.165   0.108
    1UNL    C17   22  -0.062  -0.186  -0.037
    1UNL     O6   23  -0.189  -0.133  -0.071
    1UNL    C18   24  -0.228  -0.029   0.014
    1UNL     O7   25  -0.130   0.074   0.035
    1UNL    C19   26  -0.185   0.179   0.120
    1UNL    C20   27  -0.218   0.129   0.264
    1UNL     O8   28  -0.277   0.238   0.347
    1UNL    C21   29  -0.307   0.235   0.049
    1UNL     O9   30  -0.352   0.361   0.112
    1UNL    C22   31  -0.417   0.134   0.044
    1UNL    O10   32  -0.530   0.190  -0.025
    1UNL    C23   33  -0.368   0.016  -0.036
    1UNL    O11   34  -0.371   0.047  -0.174
    1UNL     H1   35  -0.256  -0.369  -0.107
    1UNL     H2   36  -0.152  -0.520  -0.083
    1UNL     H3   37  -0.194  -0.425   0.047
    1UNL     H4   38   0.056  -0.446   0.117
    1UNL     H5   39   0.117  -0.484  -0.048
    1UNL     H6   40   0.365  -0.371   0.067
    1UNL     H7   41   0.171  -0.217  -0.282
    1UNL     H8   42   0.011   0.082  -0.086
    1UNL     H9   43  -0.002  -0.002  -0.254
    1UNL    H10   44   0.377   0.240  -0.261
    1UNL    H11   45   0.603   0.347  -0.243
    1UNL    H12   46   0.723   0.354  -0.030
    1UNL    H13   47   0.594   0.278   0.169
    1UNL    H14   48   0.380   0.153   0.138
    1UNL    H15   49   0.202  -0.080   0.080
    1UNL    H16   50  -0.026  -0.238   0.181
    1UNL    H17   51  -0.041  -0.068   0.157
    1UNL    H18   52  -0.233  -0.066   0.111
    1UNL    H19   53  -0.112   0.262   0.121
    1UNL    H20   54  -0.128   0.103   0.325
    1UNL    H21   55  -0.287   0.040   0.269
    1UNL    H22   56  -0.308   0.300   0.281
    1UNL    H23   57  -0.276   0.244  -0.058
    1UNL    H24   58  -0.420   0.405   0.060
    1UNL    H25   59  -0.452   0.121   0.146
    1UNL    H26   60  -0.532   0.166  -0.119
    1UNL    H27   61  -0.454  -0.061  -0.028
    1UNL    H28   62  -0.294   0.008  -0.214
   0.00000   0.00000   0.00000   0.00000   0.00000   0.00000   0.00000   0.00000   0.00000
Generated with MDTraj, t= 76.0
 62
    1UNL     C1    1  -0.160  -0.420  -0.068
    1UNL     C2    2  -0.027  -0.342  -0.063
    1UNL     C3    3   0.088  -0.393   0.034
    1UNL     C4    4   0.205  -0.293   0.029
    1UNL     O1    5   0.303  -0.344   0.122
    1UNL     O2    6   0.248  -0.274  -0.111
    1UNL     C5    7   0.132  -0.218  -0.185
    1UNL     O3    8   0.032  -0.327  -0.195
    1UNL     C6    9   0.070  -0.118  -0.087
    1UNL     C7   10   0.051   0.029  -0.130
    1UNL     O4   11   0.181   0.086  -0.154
    1UNL     C8   12   0.225   0.151  -0.038
    1UNL     O5   13   0.164   0.160   0.066
    1UNL     C9   14   0.365   0.205  -0.062
    1UNL    C10   15   0.415   0.218  -0.188
    1UNL    C11   16   0.549   0.249  -0.203
    1UNL    C12   17   0.631   0.261  -0.090
    1UNL    C13   18   0.580   0.238   0.037
    1UNL    C14   19   0.451   0.204   0.049
    1UNL    C15   20   0.138  -0.149   0.054
    1UNL    C16   21  -0.003  -0.141   0.119
    1UNL    C17   22  -0.061  -0.190  -0.023
    1UNL     O6   23  -0.189  -0.135  -0.057
    1UNL    C18   24  -0.248  -0.027   0.014
    1UNL     O7   25  -0.152   0.068   0.063
    1UNL    C19   26  -0.206   0.167   0.151
    1UNL    C20   27  -0.251   0.106   0.283
    1UNL     O8   28  -0.332   0.194   0.362
    1UNL    C21   29  -0.318   0.231   0.067
    1UNL     O9   30  -0.381   0.344   0.130
    1UNL    C22   31  -0.430   0.138   0.015
    1UNL    O10   32  -0.535   0.202  -0.061
    1UNL    C23   33  -0.358   0.037  -0.080
    1UNL    O11   34  -0.299   0.090  -0.196
    1UNL     H1   35  -0.213  -0.374  -0.153
    1UNL     H2   36  -0.146  -0.526  -0.079
    1UNL     H3   37  -0.222  -0.405   0.018
    1UNL     H4   38   0.051  -0.390   0.140
    1UNL     H5   39   0.105  -0.495   0.002
    1UNL     H6   40   0.375  -0.390   0.062
    1UNL     H7   41   0.159  -0.187  -0.280
    1UNL     H8   42   0.007   0.079  -0.047
    1UNL     H9   43  -0.018   0.027  -0.223
    1UNL    H10   44   0.343   0.208  -0.269
    1UNL    H11   45   0.578   0.265  -0.309
    1UNL    H12   46   0.727   0.303  -0.109
    1UNL    H13   47   0.640   0.246   0.127
    1UNL    H14   48   0.408   0.180   0.149
    1UNL    H15   49   0.206  -0.078   0.096
    1UNL    H16   50  -0.030  -0.207   0.198
    1UNL    H17   51  -0.025  -0.033   0.131
    1UNL    H18   52  -0.280  -0.067   0.104
    1UNL    H19   53  -0.125   0.247   0.169
    1UNL    H20   54  -0.160   0.080   0.340
    1UNL    H21   55  -0.323   0.021   0.269
    1UNL    H22   56  -0.379   0.259   0.302
    1UNL    H23   57  -0.265   0.257  -0.028
    1UNL    H24   58  -0.469   0.362   0.079
    1UNL    H25   59  -0.472   0.093   0.104
    1UNL    H26   60  -0.501   0.211  -0.151
    1UNL    H27   61  -0.422  -0.055  -0.104
    1UNL    H28   62  -0.223   0.024  -0.217
   0.00000   0.00000   0.00000   0.00000   0.00000   0.00000   0.00000   0.00000   0.00000
Generated with MDTraj, t= 77.0
 62
    1UNL     C1    1  -0.135  -0.435  -0.077
    1UNL     C2    2  -0.027  -0.334  -0.057
    1UNL     C3    3   0.094  -0.386   0.025
    1UNL     C4    4   0.206  -0.277   0.023
    1UNL     O1    5   0.315  -0.316   0.102
    1UNL     O2    6   0.252  -0.253  -0.111
    1UNL     C5    7   0.131  -0.206  -0.175
    1UNL     O3    8   0.039  -0.314  -0.187
    1UNL     C6    9   0.060  -0.105  -0.064
    1UNL     C7   10   0.049   0.050  -0.089
    1UNL     O4   11   0.175   0.096  -0.136
    1UNL     C8   12   0.249   0.139  -0.030
    1UNL     O5   13   0.212   0.138   0.084
    1UNL     C9   14   0.387   0.181  -0.075
    1UNL    C10   15   0.426   0.185  -0.208
    1UNL    C11   16   0.560   0.211  -0.240
    1UNL    C12   17   0.644   0.245  -0.130
    1UNL    C13   18   0.607   0.241   0.005
    1UNL    C14   19   0.472   0.210   0.033
    1UNL    C15   20   0.135  -0.137   0.067
    1UNL    C16   21  -0.002  -0.151   0.138
    1UNL    C17   22  -0.063  -0.184  -0.002
    1UNL     O6   23  -0.187  -0.138  -0.058
    1UNL    C18   24  -0.256  -0.035   0.011
    1UNL     O7   25  -0.175   0.061   0.083
    1UNL    C19   26  -0.255   0.153   0.161
    1UNL    C20   27  -0.321   0.088   0.289
    1UNL     O8   28  -0.349   0.187   0.381
    1UNL    C21   29  -0.353   0.236   0.072
    1UNL     O9   30  -0.439   0.313   0.151
    1UNL    C22   31  -0.440   0.148  -0.018
    1UNL    O10   32  -0.513   0.234  -0.108
    1UNL    C23   33  -0.348   0.045  -0.088
    1UNL    O11   34  -0.271   0.109  -0.182
    1UNL     H1   35  -0.227  -0.384  -0.099
    1UNL     H2   36  -0.108  -0.506  -0.158
    1UNL     H3   37  -0.147  -0.495   0.010
    1UNL     H4   38   0.062  -0.420   0.131
    1UNL     H5   39   0.138  -0.469  -0.024
    1UNL     H6   40   0.373  -0.388   0.056
    1UNL     H7   41   0.144  -0.169  -0.271
    1UNL     H8   42   0.018   0.099  -0.001
    1UNL     H9   43  -0.030   0.068  -0.169
    1UNL    H10   44   0.359   0.141  -0.279
    1UNL    H11   45   0.602   0.212  -0.338
    1UNL    H12   46   0.747   0.267  -0.148
    1UNL    H13   47   0.685   0.254   0.080
    1UNL    H14   48   0.444   0.200   0.134
    1UNL    H15   49   0.198  -0.060   0.108
    1UNL    H16   50  -0.018  -0.232   0.210
    1UNL    H17   51  -0.038  -0.057   0.176
    1UNL    H18   52  -0.315  -0.069   0.091
    1UNL    H19   53  -0.176   0.229   0.199
    1UNL    H20   54  -0.247   0.026   0.339
    1UNL    H21   55  -0.415   0.038   0.258
    1UNL    H22   56  -0.391   0.262   0.329
    1UNL    H23   57  -0.291   0.305   0.012
    1UNL    H24   58  -0.522   0.331   0.103
    1UNL    H25   59  -0.520   0.103   0.043
    1UNL    H26   60  -0.449   0.270  -0.174
    1UNL    H27   61  -0.420  -0.021  -0.141
    1UNL    H28   62  -0.207   0.050  -0.226
   0.00000   0.00000   0.00000   0.00000   0.00000   0.00000   0.00000   0.00000   0.00000
Generated with MDTraj, t= 78.0
 62
    1UNL     C1    1  -0.150  -0.403  -0.096
    1UNL     C2    2  -0.024  -0.318  -0.077
    1UNL     C3    3   0.091  -0.384   0.007
    1UNL     C4    4   0.195  -0.265   0.030
    1UNL     O1    5   0.301  -0.292   0.128
    1UNL     O2    6   0.242  -0.209  -0.094
    1UNL     C5    7   0.123  -0.164  -0.161
    1UNL     O3    8   0.036  -0.275  -0.198
    1UNL     C6    9   0.054  -0.081  -0.048
    1UNL     C7   10   0.057   0.072  -0.068
    1UNL     O4   11   0.178   0.110  -0.126
    1UNL     C8   12   0.276   0.125  -0.034
    1UNL     O5   13   0.254   0.119   0.081
    1UNL     C9   14   0.411   0.156  -0.077
    1UNL    C10   15   0.447   0.141  -0.215
    1UNL    C11   16   0.571   0.184  -0.260
    1UNL    C12   17   0.662   0.234  -0.168
    1UNL    C13   18   0.631   0.251  -0.033
    1UNL    C14   19   0.503   0.213   0.013
    1UNL    C15   20   0.118  -0.130   0.086
    1UNL    C16   21  -0.019  -0.162   0.140
    1UNL    C17   22  -0.059  -0.177  -0.007
    1UNL     O6   23  -0.188  -0.135  -0.056
    1UNL    C18   24  -0.260  -0.049   0.025
    1UNL     O7   25  -0.183   0.050   0.106
    1UNL    C19   26  -0.269   0.138   0.176
    1UNL    C20   27  -0.352   0.073   0.287
    1UNL     O8   28  -0.397   0.167   0.381
    1UNL    C21   29  -0.364   0.224   0.081
    1UNL     O9   30  -0.451   0.297   0.155
    1UNL    C22   31  -0.444   0.141  -0.025
    1UNL    O10   32  -0.485   0.226  -0.129
    1UNL    C23   33  -0.351   0.030  -0.078
    1UNL    O11   34  -0.262   0.082  -0.171
    1UNL     H1   35  -0.204  -0.373  -0.182
    1UNL     H2   36  -0.128  -0.512  -0.099
    1UNL     H3   37  -0.217  -0.395  -0.013
    1UNL     H4   38   0.056  -0.428   0.105
    1UNL     H5   39   0.142  -0.463  -0.045
    1UNL     H6   40   0.383  -0.321   0.088
    1UNL     H7   41   0.146  -0.102  -0.241
    1UNL     H8   42   0.046   0.120   0.027
    1UNL     H9   43  -0.025   0.112  -0.130
    1UNL    H10   44   0.370   0.105  -0.282
    1UNL    H11   45   0.599   0.154  -0.362
    1UNL    H12   46   0.764   0.262  -0.202
    1UNL    H13   47   0.696   0.289   0.044
    1UNL    H14   48   0.478   0.232   0.118
    1UNL    H15   49   0.179  -0.057   0.138
    1UNL    H16   50  -0.030  -0.254   0.202
    1UNL    H17   51  -0.056  -0.084   0.200
    1UNL    H18   52  -0.316  -0.106   0.095
    1UNL    H19   53  -0.195   0.213   0.225
    1UNL    H20   54  -0.289   0.004   0.338
    1UNL    H21   55  -0.439   0.027   0.242
    1UNL    H22   56  -0.429   0.244   0.333
    1UNL    H23   57  -0.304   0.304   0.034
    1UNL    H24   58  -0.526   0.319   0.103
    1UNL    H25   59  -0.536   0.100   0.023
    1UNL    H26   60  -0.415   0.234  -0.198
    1UNL    H27   61  -0.408  -0.049  -0.127
    1UNL    H28   62  -0.207   0.012  -0.204
   0.00000   0.00000   0.00000   0.00000   0.00000   0.00000   0.00000   0.00000   0.00000
Generated with MDTraj, t= 79.0
 62
    1UNL     C1    1  -0.119  -0.400  -0.125
    1UNL     C2    2  -0.001  -0.315  -0.082
    1UNL     C3    3   0.113  -0.377  -0.001
    1UNL     C4    4   0.210  -0.266   0.048
    1UNL     O1    5   0.295  -0.325   0.143
    1UNL     O2    6   0.266  -0.209  -0.080
    1UNL     C5    7   0.151  -0.150  -0.145
    1UNL     O3    8   0.060  -0.254  -0.198
    1UNL     C6    9   0.071  -0.080  -0.028
    1UNL     C7   10   0.061   0.074  -0.043
    1UNL     O4   11   0.168   0.141  -0.105
    1UNL     C8   12   0.276   0.146  -0.026
    1UNL     O5   13   0.270   0.118   0.089
    1UNL     C9   14   0.416   0.169  -0.080
    1UNL    C10   15   0.435   0.124  -0.205
    1UNL    C11   16   0.557   0.143  -0.269
    1UNL    C12   17   0.667   0.202  -0.204
    1UNL    C13   18   0.647   0.244  -0.072
    1UNL    C14   19   0.521   0.228  -0.013
    1UNL    C15   20   0.127  -0.141   0.105
    1UNL    C16   21  -0.021  -0.182   0.150
    1UNL    C17   22  -0.052  -0.187  -0.004
    1UNL     O6   23  -0.191  -0.142  -0.045
    1UNL    C18   24  -0.272  -0.041   0.014
    1UNL     O7   25  -0.199   0.045   0.107
    1UNL    C19   26  -0.281   0.131   0.180
    1UNL    C20   27  -0.369   0.059   0.278
    1UNL     O8   28  -0.456   0.141   0.358
    1UNL    C21   29  -0.361   0.228   0.083
    1UNL     O9   30  -0.420   0.333   0.146
    1UNL    C22   31  -0.464   0.147  -0.011
    1UNL    O10   32  -0.520   0.241  -0.105
    1UNL    C23   33  -0.371   0.038  -0.083
    1UNL    O11   34  -0.300   0.100  -0.195
    1UNL     H1   35  -0.196  -0.328  -0.147
    1UNL     H2   36  -0.094  -0.453  -0.217
    1UNL     H3   37  -0.151  -0.477  -0.056
    1UNL     H4   38   0.080  -0.432   0.084
    1UNL     H5   39   0.162  -0.448  -0.070
    1UNL     H6   40   0.373  -0.353   0.098
    1UNL     H7   41   0.188  -0.091  -0.222
    1UNL     H8   42   0.050   0.118   0.056
    1UNL     H9   43  -0.028   0.109  -0.089
    1UNL    H10   44   0.352   0.084  -0.263
    1UNL    H11   45   0.572   0.117  -0.372
    1UNL    H12   46   0.759   0.206  -0.251
    1UNL    H13   47   0.728   0.306  -0.032
    1UNL    H14   48   0.495   0.274   0.083
    1UNL    H15   49   0.180  -0.059   0.152
    1UNL    H16   50  -0.026  -0.285   0.190
    1UNL    H17   51  -0.075  -0.106   0.204
    1UNL    H18   52  -0.342  -0.093   0.079
    1UNL    H19   53  -0.201   0.193   0.237
    1UNL    H20   54  -0.309   0.005   0.348
    1UNL    H21   55  -0.428  -0.016   0.229
    1UNL    H22   56  -0.469   0.226   0.305
    1UNL    H23   57  -0.291   0.277   0.014
    1UNL    H24   58  -0.496   0.356   0.093
    1UNL    H25   59  -0.545   0.097   0.048
    1UNL    H26   60  -0.470   0.253  -0.189
    1UNL    H27   61  -0.431  -0.039  -0.124
    1UNL    H28   62  -0.249   0.028  -0.248
   0.00000   0.00000   0.00000   0.00000   0.00000   0.00000   0.00000   0.00000   0.00000
Generated with MDTraj, t= 80.0
 62
    1UNL     C1    1  -0.112  -0.380  -0.166
    1UNL     C2    2  -0.005  -0.299  -0.094
    1UNL     C3    3   0.094  -0.375  -0.001
    1UNL     C4    4   0.200  -0.271   0.054
    1UNL     O1    5   0.289  -0.327   0.152
    1UNL     O2    6   0.269  -0.213  -0.058
    1UNL     C5    7   0.164  -0.143  -0.132
    1UNL     O3    8   0.085  -0.247  -0.192
    1UNL     C6    9   0.075  -0.072  -0.019
    1UNL     C7   10   0.058   0.082  -0.025
    1UNL     O4   11   0.164   0.141  -0.093
    1UNL     C8   12   0.269   0.151  -0.009
    1UNL     O5   13   0.264   0.131   0.111
    1UNL     C9   14   0.397   0.161  -0.080
    1UNL    C10   15   0.413   0.104  -0.205
    1UNL    C11   16   0.528   0.122  -0.279
    1UNL    C12   17   0.634   0.192  -0.228
    1UNL    C13   18   0.629   0.228  -0.095
    1UNL    C14   19   0.513   0.212  -0.020
    1UNL    C15   20   0.122  -0.149   0.113
    1UNL    C16   21  -0.024  -0.176   0.138
    1UNL    C17   22  -0.057  -0.168  -0.013
    1UNL     O6   23  -0.159  -0.096  -0.072
    1UNL    C18   24  -0.251  -0.036   0.015
    1UNL     O7   25  -0.181   0.053   0.111
    1UNL    C19   26  -0.274   0.134   0.180
    1UNL    C20   27  -0.357   0.058   0.288
    1UNL     O8   28  -0.473   0.134   0.329
    1UNL    C21   29  -0.354   0.222   0.076
    1UNL     O9   30  -0.419   0.327   0.138
    1UNL    C22   31  -0.444   0.132  -0.001
    1UNL    O10   32  -0.521   0.205  -0.092
    1UNL    C23   33  -0.353   0.037  -0.078
    1UNL    O11   34  -0.291   0.105  -0.183
    1UNL     H1   35  -0.144  -0.330  -0.258
    1UNL     H2   36  -0.069  -0.475  -0.183
    1UNL     H3   37  -0.193  -0.407  -0.096
    1UNL     H4   38   0.048  -0.436   0.068
    1UNL     H5   39   0.152  -0.447  -0.063
    1UNL     H6   40   0.376  -0.314   0.125
    1UNL     H7   41   0.190  -0.078  -0.208
    1UNL     H8   42   0.045   0.134   0.067
    1UNL     H9   43  -0.031   0.110  -0.072
    1UNL    H10   44   0.333   0.048  -0.248
    1UNL    H11   45   0.525   0.077  -0.377
    1UNL    H12   46   0.727   0.210  -0.289
    1UNL    H13   47   0.706   0.275  -0.039
    1UNL    H14   48   0.491   0.254   0.073
    1UNL    H15   49   0.174  -0.088   0.187
    1UNL    H16   50  -0.033  -0.278   0.178
    1UNL    H17   51  -0.080  -0.102   0.198
    1UNL    H18   52  -0.306  -0.112   0.072
    1UNL    H19   53  -0.205   0.209   0.234
    1UNL    H20   54  -0.304   0.025   0.377
    1UNL    H21   55  -0.395  -0.038   0.254
    1UNL    H22   56  -0.465   0.221   0.288
    1UNL    H23   57  -0.280   0.273   0.012
    1UNL    H24   58  -0.469   0.390   0.073
    1UNL    H25   59  -0.504   0.068   0.069
    1UNL    H26   60  -0.475   0.241  -0.170
    1UNL    H27   61  -0.413  -0.035  -0.128
    1UNL    H28   62  -0.207   0.063  -0.197
   0.00000   0.00000   0.00000   0.00000   0.00000   0.00000   0.00000   0.00000   0.00000
Generated with MDTraj, t= 81.0
 62
    1UNL     C1    1  -0.109  -0.385  -0.162
    1UNL     C2    2  -0.000  -0.298  -0.091
    1UNL     C3    3   0.100  -0.376  -0.003
    1UNL     C4    4   0.193  -0.275   0.062
    1UNL     O1    5   0.273  -0.332   0.165
    1UNL     O2    6   0.266  -0.210  -0.045
    1UNL     C5    7   0.165  -0.143  -0.123
    1UNL     O3    8   0.087  -0.241  -0.191
    1UNL     C6    9   0.069  -0.085  -0.014
    1UNL     C7   10   0.065   0.070  -0.011
    1UNL     O4   11   0.163   0.131  -0.095
    1UNL     C8   12   0.280   0.151  -0.017
    1UNL     O5   13   0.284   0.123   0.104
    1UNL     C9   14   0.402   0.180  -0.089
    1UNL    C10   15   0.401   0.152  -0.225
    1UNL    C11   16   0.520   0.153  -0.293
    1UNL    C12   17   0.637   0.179  -0.222
    1UNL    C13   18   0.632   0.203  -0.082
    1UNL    C14   19   0.512   0.207  -0.018
    1UNL    C15   20   0.113  -0.152   0.117
    1UNL    C16   21  -0.040  -0.174   0.141
    1UNL    C17   22  -0.062  -0.176  -0.014
    1UNL     O6   23  -0.175  -0.122  -0.077
    1UNL    C18   24  -0.256  -0.038   0.008
    1UNL     O7   25  -0.182   0.065   0.087
    1UNL    C19   26  -0.258   0.156   0.168
    1UNL    C20   27  -0.321   0.079   0.284
    1UNL     O8   28  -0.444   0.123   0.321
    1UNL    C21   29  -0.364   0.229   0.082
    1UNL     O9   30  -0.457   0.303   0.158
    1UNL    C22   31  -0.450   0.134  -0.005
    1UNL    O10   32  -0.529   0.216  -0.101
    1UNL    C23   33  -0.354   0.031  -0.088
    1UNL    O11   34  -0.272   0.106  -0.174
    1UNL     H1   35  -0.171  -0.313  -0.219
    1UNL     H2   36  -0.074  -0.458  -0.229
    1UNL     H3   37  -0.170  -0.444  -0.093
    1UNL     H4   38   0.046  -0.434   0.066
    1UNL     H5   39   0.161  -0.448  -0.059
    1UNL     H6   40   0.363  -0.325   0.144
    1UNL     H7   41   0.202  -0.071  -0.188
    1UNL     H8   42   0.070   0.115   0.087
    1UNL     H9   43  -0.026   0.113  -0.036
    1UNL    H10   44   0.314   0.116  -0.280
    1UNL    H11   45   0.536   0.106  -0.390
    1UNL    H12   46   0.732   0.178  -0.265
    1UNL    H13   47   0.726   0.217  -0.027
    1UNL    H14   48   0.500   0.232   0.093
    1UNL    H15   49   0.175  -0.086   0.180
    1UNL    H16   50  -0.057  -0.272   0.184
    1UNL    H17   51  -0.098  -0.104   0.211
    1UNL    H18   52  -0.304  -0.104   0.082
    1UNL    H19   53  -0.190   0.233   0.212
    1UNL    H20   54  -0.252   0.083   0.369
    1UNL    H21   55  -0.329  -0.024   0.253
    1UNL    H22   56  -0.446   0.223   0.322
    1UNL    H23   57  -0.310   0.300   0.015
    1UNL    H24   58  -0.532   0.332   0.104
    1UNL    H25   59  -0.515   0.073   0.061
    1UNL    H26   60  -0.477   0.278  -0.158
    1UNL    H27   61  -0.411  -0.041  -0.148
    1UNL    H28   62  -0.184   0.066  -0.170
   0.00000   0.00000   0.00000   0.00000   0.00000   0.00000   0.00000   0.00000   0.00000
Generated with MDTraj, t= 82.0
 62
    1UNL     C1    1  -0.111  -0.392  -0.138
    1UNL     C2    2   0.001  -0.306  -0.087
    1UNL     C3    3   0.102  -0.374   0.007
    1UNL     C4    4   0.193  -0.268   0.077
    1UNL     O1    5   0.262  -0.340   0.180
    1UNL     O2    6   0.264  -0.215  -0.041
    1UNL     C5    7   0.165  -0.154  -0.122
    1UNL     O3    8   0.084  -0.253  -0.193
    1UNL     C6    9   0.074  -0.083  -0.017
    1UNL     C7   10   0.063   0.070  -0.033
    1UNL     O4   11   0.170   0.119  -0.106
    1UNL     C8   12   0.283   0.135  -0.022
    1UNL     O5   13   0.283   0.132   0.102
    1UNL     C9   14   0.416   0.150  -0.088
    1UNL    C10   15   0.406   0.188  -0.225
    1UNL    C11   16   0.522   0.218  -0.287
    1UNL    C12   17   0.640   0.218  -0.215
    1UNL    C13   18   0.652   0.179  -0.085
    1UNL    C14   19   0.536   0.152  -0.018
    1UNL    C15   20   0.107  -0.144   0.125
    1UNL    C16   21  -0.046  -0.167   0.138
    1UNL    C17   22  -0.057  -0.171  -0.016
    1UNL     O6   23  -0.173  -0.119  -0.079
    1UNL    C18   24  -0.255  -0.030   0.001
    1UNL     O7   25  -0.179   0.064   0.071
    1UNL    C19   26  -0.265   0.145   0.159
    1UNL    C20   27  -0.319   0.064   0.282
    1UNL     O8   28  -0.426   0.118   0.347
    1UNL    C21   29  -0.373   0.221   0.076
    1UNL     O9   30  -0.450   0.324   0.145
    1UNL    C22   31  -0.460   0.126  -0.004
    1UNL    O10   32  -0.548   0.207  -0.084
    1UNL    C23   33  -0.357   0.046  -0.097
    1UNL    O11   34  -0.300   0.125  -0.189
    1UNL     H1   35  -0.175  -0.328  -0.199
    1UNL     H2   36  -0.078  -0.473  -0.202
    1UNL     H3   37  -0.164  -0.444  -0.060
    1UNL     H4   38   0.059  -0.438   0.086
    1UNL     H5   39   0.164  -0.434  -0.052
    1UNL     H6   40   0.352  -0.346   0.146
    1UNL     H7   41   0.213  -0.087  -0.185
    1UNL     H8   42   0.057   0.126   0.057
    1UNL     H9   43  -0.027   0.096  -0.073
    1UNL    H10   44   0.313   0.186  -0.277
    1UNL    H11   45   0.521   0.223  -0.394
    1UNL    H12   46   0.737   0.235  -0.265
    1UNL    H13   47   0.740   0.185  -0.029
    1UNL    H14   48   0.529   0.135   0.082
    1UNL    H15   49   0.152  -0.064   0.189
    1UNL    H16   50  -0.057  -0.266   0.186
    1UNL    H17   51  -0.102  -0.089   0.199
    1UNL    H18   52  -0.309  -0.087   0.080
    1UNL    H19   53  -0.202   0.222   0.198
    1UNL    H20   54  -0.234   0.046   0.355
    1UNL    H21   55  -0.348  -0.034   0.245
    1UNL    H22   56  -0.443   0.205   0.299
    1UNL    H23   57  -0.313   0.274  -0.001
    1UNL    H24   58  -0.522   0.342   0.088
    1UNL    H25   59  -0.509   0.058   0.066
    1UNL    H26   60  -0.499   0.225  -0.167
    1UNL    H27   61  -0.425  -0.027  -0.149
    1UNL    H28   62  -0.214   0.079  -0.218
   0.00000   0.00000   0.00000   0.00000   0.00000   0.00000   0.00000   0.00000   0.00000
Generated with MDTraj, t= 83.0
 62
    1UNL     C1    1  -0.135  -0.384  -0.138
    1UNL     C2    2  -0.015  -0.313  -0.077
    1UNL     C3    3   0.075  -0.387   0.034
    1UNL     C4    4   0.187  -0.274   0.080
    1UNL     O1    5   0.261  -0.322   0.190
    1UNL     O2    6   0.266  -0.241  -0.040
    1UNL     C5    7   0.174  -0.178  -0.129
    1UNL     O3    8   0.084  -0.276  -0.178
    1UNL     C6    9   0.079  -0.085  -0.040
    1UNL     C7   10   0.064   0.066  -0.083
    1UNL     O4   11   0.180   0.133  -0.118
    1UNL     C8   12   0.285   0.130  -0.030
    1UNL     O5   13   0.288   0.086   0.087
    1UNL     C9   14   0.419   0.175  -0.088
    1UNL    C10   15   0.421   0.253  -0.203
    1UNL    C11   16   0.542   0.280  -0.263
    1UNL    C12   17   0.656   0.224  -0.204
    1UNL    C13   18   0.656   0.163  -0.084
    1UNL    C14   19   0.538   0.130  -0.031
    1UNL    C15   20   0.113  -0.138   0.109
    1UNL    C16   21  -0.034  -0.146   0.130
    1UNL    C17   22  -0.058  -0.170  -0.024
    1UNL     O6   23  -0.164  -0.094  -0.091
    1UNL    C18   24  -0.253  -0.029  -0.001
    1UNL     O7   25  -0.187   0.070   0.074
    1UNL    C19   26  -0.278   0.140   0.168
    1UNL    C20   27  -0.333   0.065   0.292
    1UNL     O8   28  -0.396   0.149   0.391
    1UNL    C21   29  -0.378   0.220   0.075
    1UNL     O9   30  -0.453   0.322   0.149
    1UNL    C22   31  -0.462   0.117  -0.005
    1UNL    O10   32  -0.547   0.187  -0.095
    1UNL    C23   33  -0.364   0.032  -0.089
    1UNL    O11   34  -0.313   0.099  -0.203
    1UNL     H1   35  -0.160  -0.341  -0.234
    1UNL     H2   36  -0.125  -0.495  -0.145
    1UNL     H3   37  -0.215  -0.377  -0.067
    1UNL     H4   38   0.009  -0.405   0.124
    1UNL     H5   39   0.114  -0.477   0.000
    1UNL     H6   40   0.330  -0.380   0.152
    1UNL     H7   41   0.220  -0.121  -0.204
    1UNL     H8   42   0.024   0.118   0.002
    1UNL     H9   43  -0.014   0.078  -0.148
    1UNL    H10   44   0.327   0.288  -0.246
    1UNL    H11   45   0.557   0.333  -0.359
    1UNL    H12   46   0.750   0.237  -0.255
    1UNL    H13   47   0.750   0.137  -0.030
    1UNL    H14   48   0.525   0.095   0.078
    1UNL    H15   49   0.173  -0.063   0.167
    1UNL    H16   50  -0.064  -0.236   0.194
    1UNL    H17   51  -0.071  -0.050   0.166
    1UNL    H18   52  -0.289  -0.108   0.070
    1UNL    H19   53  -0.216   0.215   0.209
    1UNL    H20   54  -0.249   0.007   0.341
    1UNL    H21   55  -0.407  -0.011   0.263
    1UNL    H22   56  -0.448   0.213   0.341
    1UNL    H23   57  -0.321   0.273  -0.004
    1UNL    H24   58  -0.537   0.332   0.094
    1UNL    H25   59  -0.522   0.061   0.067
    1UNL    H26   60  -0.510   0.178  -0.184
    1UNL    H27   61  -0.426  -0.050  -0.142
    1UNL    H28   62  -0.244   0.042  -0.247
   0.00000   0.00000   0.00000   0.00000   0.00000   0.00000   0.00000   0.00000   0.00000
Generated with MDTraj, t= 84.0
 62
    1UNL     C1    1  -0.152  -0.384  -0.110
    1UNL     C2    2  -0.027  -0.312  -0.061
    1UNL     C3    3   0.073  -0.384   0.037
    1UNL     C4    4   0.187  -0.278   0.066
    1UNL     O1    5   0.275  -0.322   0.162
    1UNL     O2    6   0.255  -0.255  -0.059
    1UNL     C5    7   0.153  -0.190  -0.142
    1UNL     O3    8   0.054  -0.289  -0.179
    1UNL     C6    9   0.077  -0.093  -0.036
    1UNL     C7   10   0.073   0.057  -0.080
    1UNL     O4   11   0.190   0.102  -0.133
    1UNL     C8   12   0.297   0.122  -0.047
    1UNL     O5   13   0.290   0.102   0.077
    1UNL     C9   14   0.429   0.160  -0.101
    1UNL    C10   15   0.443   0.272  -0.183
    1UNL    C11   16   0.562   0.327  -0.220
    1UNL    C12   17   0.677   0.271  -0.168
    1UNL    C13   18   0.668   0.162  -0.084
    1UNL    C14   19   0.548   0.100  -0.053
    1UNL    C15   20   0.123  -0.140   0.110
    1UNL    C16   21  -0.031  -0.146   0.147
    1UNL    C17   22  -0.056  -0.163  -0.007
    1UNL     O6   23  -0.175  -0.117  -0.077
    1UNL    C18   24  -0.256  -0.030   0.002
    1UNL     O7   25  -0.192   0.086   0.059
    1UNL    C19   26  -0.271   0.163   0.153
    1UNL    C20   27  -0.325   0.085   0.268
    1UNL     O8   28  -0.372   0.181   0.369
    1UNL    C21   29  -0.392   0.228   0.077
    1UNL     O9   30  -0.491   0.284   0.171
    1UNL    C22   31  -0.469   0.118  -0.009
    1UNL    O10   32  -0.551   0.183  -0.103
    1UNL    C23   33  -0.375   0.019  -0.082
    1UNL    O11   34  -0.315   0.088  -0.191
    1UNL     H1   35  -0.218  -0.307  -0.142
    1UNL     H2   36  -0.126  -0.444  -0.202
    1UNL     H3   37  -0.192  -0.456  -0.041
    1UNL     H4   38   0.026  -0.410   0.136
    1UNL     H5   39   0.115  -0.467  -0.012
    1UNL     H6   40   0.346  -0.378   0.118
    1UNL     H7   41   0.186  -0.126  -0.218
    1UNL     H8   42   0.038   0.117   0.006
    1UNL     H9   43  -0.004   0.074  -0.146
    1UNL    H10   44   0.356   0.321  -0.223
    1UNL    H11   45   0.573   0.413  -0.280
    1UNL    H12   46   0.774   0.307  -0.194
    1UNL    H13   47   0.752   0.139  -0.025
    1UNL    H14   48   0.549   0.026   0.020
    1UNL    H15   49   0.198  -0.071   0.161
    1UNL    H16   50  -0.074  -0.237   0.204
    1UNL    H17   51  -0.054  -0.052   0.194
    1UNL    H18   52  -0.291  -0.097   0.087
    1UNL    H19   53  -0.209   0.240   0.186
    1UNL    H20   54  -0.254   0.015   0.321
    1UNL    H21   55  -0.411   0.022   0.242
    1UNL    H22   56  -0.417   0.262   0.329
    1UNL    H23   57  -0.351   0.307   0.015
    1UNL    H24   58  -0.568   0.314   0.114
    1UNL    H25   59  -0.544   0.068   0.051
    1UNL    H26   60  -0.496   0.192  -0.186
    1UNL    H27   61  -0.423  -0.070  -0.136
    1UNL    H28   62  -0.239   0.038  -0.227
   0.00000   0.00000   0.00000   0.00000   0.00000   0.00000   0.00000   0.00000   0.00000
Generated with MDTraj, t= 85.0
 62
    1UNL     C1    1  -0.162  -0.403  -0.063
    1UNL     C2    2  -0.034  -0.321  -0.061
    1UNL     C3    3   0.076  -0.383   0.035
    1UNL     C4    4   0.195  -0.288   0.054
    1UNL     O1    5   0.289  -0.339   0.156
    1UNL     O2    6   0.244  -0.264  -0.079
    1UNL     C5    7   0.135  -0.200  -0.157
    1UNL     O3    8   0.029  -0.297  -0.190
    1UNL     C6    9   0.075  -0.101  -0.055
    1UNL     C7   10   0.079   0.051  -0.092
    1UNL     O4   11   0.204   0.085  -0.140
    1UNL     C8   12   0.298   0.119  -0.048
    1UNL     O5   13   0.277   0.102   0.073
    1UNL     C9   14   0.429   0.171  -0.079
    1UNL    C10   15   0.437   0.295  -0.146
    1UNL    C11   16   0.562   0.343  -0.178
    1UNL    C12   17   0.676   0.279  -0.151
    1UNL    C13   18   0.673   0.160  -0.084
    1UNL    C14   19   0.549   0.104  -0.048
    1UNL    C15   20   0.132  -0.143   0.084
    1UNL    C16   21  -0.011  -0.136   0.138
    1UNL    C17   22  -0.057  -0.170  -0.009
    1UNL     O6   23  -0.165  -0.104  -0.082
    1UNL    C18   24  -0.248  -0.030  -0.001
    1UNL     O7   25  -0.191   0.087   0.064
    1UNL    C19   26  -0.279   0.177   0.145
    1UNL    C20   27  -0.305   0.106   0.274
    1UNL     O8   28  -0.354   0.200   0.365
    1UNL    C21   29  -0.402   0.219   0.065
    1UNL     O9   30  -0.490   0.308   0.137
    1UNL    C22   31  -0.472   0.104  -0.002
    1UNL    O10   32  -0.571   0.156  -0.080
    1UNL    C23   33  -0.372   0.019  -0.083
    1UNL    O11   34  -0.324   0.102  -0.186
    1UNL     H1   35  -0.215  -0.386  -0.155
    1UNL     H2   36  -0.141  -0.510  -0.041
    1UNL     H3   37  -0.220  -0.378   0.026
    1UNL     H4   38   0.040  -0.393   0.138
    1UNL     H5   39   0.109  -0.476  -0.016
    1UNL     H6   40   0.387  -0.330   0.127
    1UNL     H7   41   0.179  -0.170  -0.246
    1UNL     H8   42   0.033   0.118  -0.013
    1UNL     H9   43   0.012   0.066  -0.172
    1UNL    H10   44   0.343   0.344  -0.171
    1UNL    H11   45   0.560   0.428  -0.251
    1UNL    H12   46   0.773   0.325  -0.175
    1UNL    H13   47   0.771   0.117  -0.054
    1UNL    H14   48   0.546   0.008   0.008
    1UNL    H15   49   0.206  -0.069   0.126
    1UNL    H16   50  -0.038  -0.206   0.222
    1UNL    H17   51  -0.038  -0.032   0.168
    1UNL    H18   52  -0.298  -0.100   0.074
    1UNL    H19   53  -0.222   0.263   0.163
    1UNL    H20   54  -0.208   0.070   0.318
    1UNL    H21   55  -0.374   0.020   0.273
    1UNL    H22   56  -0.426   0.249   0.325
    1UNL    H23   57  -0.353   0.280  -0.010
    1UNL    H24   58  -0.570   0.323   0.087
    1UNL    H25   59  -0.527   0.035   0.061
    1UNL    H26   60  -0.521   0.194  -0.153
    1UNL    H27   61  -0.420  -0.071  -0.133
    1UNL    H28   62  -0.226   0.072  -0.195
   0.00000   0.00000   0.00000   0.00000   0.00000   0.00000   0.00000   0.00000   0.00000
Generated with MDTraj, t= 86.0
 62
    1UNL     C1    1  -0.168  -0.398  -0.070
    1UNL     C2    2  -0.037  -0.322  -0.060
    1UNL     C3    3   0.064  -0.385   0.043
    1UNL     C4    4   0.192  -0.293   0.043
    1UNL     O1    5   0.269  -0.335   0.154
    1UNL     O2    6   0.250  -0.298  -0.087
    1UNL     C5    7   0.147  -0.235  -0.168
    1UNL     O3    8   0.030  -0.315  -0.189
    1UNL     C6    9   0.092  -0.111  -0.079
    1UNL     C7   10   0.081   0.033  -0.124
    1UNL     O4   11   0.213   0.088  -0.147
    1UNL     C8   12   0.278   0.126  -0.040
    1UNL     O5   13   0.238   0.118   0.076
    1UNL     C9   14   0.415   0.184  -0.070
    1UNL    C10   15   0.433   0.312  -0.115
    1UNL    C11   16   0.560   0.351  -0.153
    1UNL    C12   17   0.671   0.274  -0.144
    1UNL    C13   18   0.653   0.154  -0.072
    1UNL    C14   19   0.528   0.115  -0.035
    1UNL    C15   20   0.150  -0.136   0.061
    1UNL    C16   21   0.008  -0.119   0.117
    1UNL    C17   22  -0.047  -0.165  -0.020
    1UNL     O6   23  -0.159  -0.091  -0.079
    1UNL    C18   24  -0.242  -0.024   0.006
    1UNL     O7   25  -0.179   0.088   0.060
    1UNL    C19   26  -0.262   0.180   0.141
    1UNL    C20   27  -0.286   0.125   0.288
    1UNL     O8   28  -0.353   0.212   0.372
    1UNL    C21   29  -0.386   0.225   0.060
    1UNL     O9   30  -0.474   0.333   0.109
    1UNL    C22   31  -0.466   0.104   0.021
    1UNL    O10   32  -0.581   0.135  -0.047
    1UNL    C23   33  -0.372   0.011  -0.067
    1UNL    O11   34  -0.334   0.075  -0.197
    1UNL     H1   35  -0.238  -0.337  -0.129
    1UNL     H2   36  -0.155  -0.496  -0.111
    1UNL     H3   37  -0.204  -0.425   0.031
    1UNL     H4   38   0.026  -0.412   0.138
    1UNL     H5   39   0.096  -0.474  -0.025
    1UNL     H6   40   0.371  -0.329   0.130
    1UNL     H7   41   0.187  -0.220  -0.262
    1UNL     H8   42   0.016   0.097  -0.054
    1UNL     H9   43   0.017   0.039  -0.212
    1UNL    H10   44   0.347   0.370  -0.143
    1UNL    H11   45   0.568   0.442  -0.204
    1UNL    H12   46   0.760   0.314  -0.186
    1UNL    H13   47   0.743   0.101  -0.052
    1UNL    H14   48   0.524   0.024   0.025
    1UNL    H15   49   0.228  -0.063   0.094
    1UNL    H16   50  -0.023  -0.187   0.197
    1UNL    H17   51  -0.021  -0.009   0.136
    1UNL    H18   52  -0.266  -0.098   0.091
    1UNL    H19   53  -0.203   0.266   0.161
    1UNL    H20   54  -0.188   0.115   0.341
    1UNL    H21   55  -0.339   0.030   0.281
    1UNL    H22   56  -0.409   0.263   0.308
    1UNL    H23   57  -0.340   0.263  -0.030
    1UNL    H24   58  -0.561   0.321   0.065
    1UNL    H25   59  -0.507   0.051   0.108
    1UNL    H26   60  -0.554   0.171  -0.135
    1UNL    H27   61  -0.421  -0.082  -0.102
    1UNL    H28   62  -0.246   0.039  -0.219
   0.00000   0.00000   0.00000   0.00000   0.00000   0.00000   0.00000   0.00000   0.00000
Generated with MDTraj, t= 87.0
 62
    1UNL     C1    1  -0.176  -0.375  -0.088
    1UNL     C2    2  -0.036  -0.328  -0.059
    1UNL     C3    3   0.061  -0.400   0.042
    1UNL     C4    4   0.191  -0.309   0.042
    1UNL     O1    5   0.285  -0.338   0.147
    1UNL     O2    6   0.245  -0.297  -0.088
    1UNL     C5    7   0.143  -0.234  -0.168
    1UNL     O3    8   0.034  -0.322  -0.185
    1UNL     C6    9   0.088  -0.120  -0.071
    1UNL     C7   10   0.082   0.013  -0.125
    1UNL     O4   11   0.216   0.057  -0.157
    1UNL     C8   12   0.264   0.139  -0.059
    1UNL     O5   13   0.201   0.181   0.038
    1UNL     C9   14   0.403   0.189  -0.079
    1UNL    C10   15   0.437   0.320  -0.106
    1UNL    C11   16   0.565   0.369  -0.124
    1UNL    C12   17   0.668   0.285  -0.099
    1UNL    C13   18   0.644   0.160  -0.053
    1UNL    C14   19   0.512   0.112  -0.029
    1UNL    C15   20   0.145  -0.153   0.067
    1UNL    C16   21   0.004  -0.129   0.123
    1UNL    C17   22  -0.048  -0.173  -0.020
    1UNL     O6   23  -0.167  -0.111  -0.076
    1UNL    C18   24  -0.244  -0.024   0.011
    1UNL     O7   25  -0.175   0.097   0.032
    1UNL    C19   26  -0.235   0.193   0.123
    1UNL    C20   27  -0.260   0.132   0.271
    1UNL     O8   28  -0.331   0.221   0.352
    1UNL    C21   29  -0.370   0.236   0.056
    1UNL     O9   30  -0.451   0.329   0.138
    1UNL    C22   31  -0.457   0.112   0.026
    1UNL    O10   32  -0.569   0.142  -0.043
    1UNL    C23   33  -0.382   0.002  -0.047
    1UNL    O11   34  -0.363   0.035  -0.186
    1UNL     H1   35  -0.213  -0.299  -0.161
    1UNL     H2   36  -0.180  -0.472  -0.127
    1UNL     H3   37  -0.239  -0.383   0.003
    1UNL     H4   38   0.012  -0.403   0.136
    1UNL     H5   39   0.080  -0.504  -0.003
    1UNL     H6   40   0.374  -0.342   0.091
    1UNL     H7   41   0.182  -0.193  -0.254
    1UNL     H8   42   0.015   0.087  -0.066
    1UNL     H9   43   0.016   0.009  -0.218
    1UNL    H10   44   0.350   0.380  -0.128
    1UNL    H11   45   0.575   0.471  -0.168
    1UNL    H12   46   0.768   0.323  -0.123
    1UNL    H13   47   0.728   0.093  -0.034
    1UNL    H14   48   0.489   0.024   0.022
    1UNL    H15   49   0.222  -0.081   0.103
    1UNL    H16   50  -0.025  -0.189   0.210
    1UNL    H17   51  -0.009  -0.016   0.139
    1UNL    H18   52  -0.243  -0.081   0.110
    1UNL    H19   53  -0.168   0.278   0.140
    1UNL    H20   54  -0.162   0.107   0.311
    1UNL    H21   55  -0.324   0.047   0.257
    1UNL    H22   56  -0.389   0.273   0.287
    1UNL    H23   57  -0.350   0.283  -0.040
    1UNL    H24   58  -0.545   0.306   0.104
    1UNL    H25   59  -0.493   0.083   0.127
    1UNL    H26   60  -0.541   0.171  -0.134
    1UNL    H27   61  -0.445  -0.084  -0.057
    1UNL    H28   62  -0.272   0.002  -0.209
   0.00000   0.00000   0.00000   0.00000   0.00000   0.00000   0.00000   0.00000   0.00000
Generated with MDTraj, t= 88.0
 62
    1UNL     C1    1  -0.168  -0.421  -0.056
    1UNL     C2    2  -0.040  -0.341  -0.059
    1UNL     C3    3   0.069  -0.394   0.039
    1UNL     C4    4   0.190  -0.294   0.045
    1UNL     O1    5   0.287  -0.339   0.141
    1UNL     O2    6   0.238  -0.300  -0.090
    1UNL     C5    7   0.129  -0.239  -0.168
    1UNL     O3    8   0.027  -0.340  -0.188
    1UNL     C6    9   0.068  -0.123  -0.083
    1UNL     C7   10   0.073   0.016  -0.136
    1UNL     O4   11   0.211   0.063  -0.154
    1UNL     C8   12   0.257   0.163  -0.067
    1UNL     O5   13   0.190   0.210   0.025
    1UNL     C9   14   0.399   0.212  -0.082
    1UNL    C10   15   0.438   0.346  -0.099
    1UNL    C11   16   0.567   0.385  -0.084
    1UNL    C12   17   0.668   0.288  -0.055
    1UNL    C13   18   0.632   0.153  -0.036
    1UNL    C14   19   0.495   0.118  -0.041
    1UNL    C15   20   0.131  -0.143   0.059
    1UNL    C16   21  -0.012  -0.141   0.114
    1UNL    C17   22  -0.066  -0.189  -0.024
    1UNL     O6   23  -0.185  -0.137  -0.088
    1UNL    C18   24  -0.243  -0.039   0.001
    1UNL     O7   25  -0.166   0.079   0.029
    1UNL    C19   26  -0.226   0.185   0.108
    1UNL    C20   27  -0.240   0.137   0.251
    1UNL     O8   28  -0.274   0.248   0.339
    1UNL    C21   29  -0.361   0.225   0.053
    1UNL     O9   30  -0.415   0.337   0.138
    1UNL    C22   31  -0.450   0.102   0.035
    1UNL    O10   32  -0.562   0.148  -0.032
    1UNL    C23   33  -0.382  -0.009  -0.056
    1UNL    O11   34  -0.377   0.053  -0.182
    1UNL     H1   35  -0.236  -0.390  -0.138
    1UNL     H2   36  -0.154  -0.527  -0.050
    1UNL     H3   37  -0.219  -0.407   0.042
    1UNL     H4   38   0.023  -0.402   0.139
    1UNL     H5   39   0.100  -0.492  -0.002
    1UNL     H6   40   0.306  -0.436   0.112
    1UNL     H7   41   0.163  -0.204  -0.258
    1UNL     H8   42   0.018   0.088  -0.063
    1UNL     H9   43   0.008   0.037  -0.229
    1UNL    H10   44   0.366   0.426  -0.110
    1UNL    H11   45   0.599   0.479  -0.115
    1UNL    H12   46   0.771   0.316  -0.055
    1UNL    H13   47   0.708   0.078  -0.020
    1UNL    H14   48   0.473   0.013  -0.002
    1UNL    H15   49   0.208  -0.064   0.084
    1UNL    H16   50  -0.040  -0.198   0.205
    1UNL    H17   51  -0.047  -0.037   0.135
    1UNL    H18   52  -0.251  -0.090   0.103
    1UNL    H19   53  -0.150   0.269   0.100
    1UNL    H20   54  -0.142   0.105   0.281
    1UNL    H21   55  -0.310   0.055   0.255
    1UNL    H22   56  -0.315   0.321   0.293
    1UNL    H23   57  -0.343   0.263  -0.049
    1UNL    H24   58  -0.507   0.335   0.124
    1UNL    H25   59  -0.483   0.067   0.135
    1UNL    H26   60  -0.525   0.161  -0.120
    1UNL    H27   61  -0.452  -0.089  -0.060
    1UNL    H28   62  -0.300   0.014  -0.230
   0.00000   0.00000   0.00000   0.00000   0.00000   0.00000   0.00000   0.00000   0.00000
Generated with MDTraj, t= 89.0
 62
    1UNL     C1    1  -0.153  -0.443  -0.055
    1UNL     C2    2  -0.036  -0.347  -0.059
    1UNL     C3    3   0.076  -0.394   0.042
    1UNL     C4    4   0.194  -0.288   0.041
    1UNL     O1    5   0.294  -0.331   0.132
    1UNL     O2    6   0.239  -0.284  -0.100
    1UNL     C5    7   0.126  -0.233  -0.173
    1UNL     O3    8   0.028  -0.339  -0.186
    1UNL     C6    9   0.062  -0.126  -0.081
    1UNL     C7   10   0.076   0.013  -0.142
    1UNL     O4   11   0.206   0.049  -0.142
    1UNL     C8   12   0.228   0.156  -0.065
    1UNL     O5   13   0.141   0.224  -0.014
    1UNL     C9   14   0.374   0.199  -0.053
    1UNL    C10   15   0.403   0.342  -0.048
    1UNL    C11   16   0.539   0.377  -0.044
    1UNL    C12   17   0.637   0.280  -0.048
    1UNL    C13   18   0.610   0.144  -0.046
    1UNL    C14   19   0.476   0.105  -0.045
    1UNL    C15   20   0.131  -0.147   0.057
    1UNL    C16   21  -0.014  -0.147   0.115
    1UNL    C17   22  -0.068  -0.194  -0.021
    1UNL     O6   23  -0.191  -0.151  -0.069
    1UNL    C18   24  -0.246  -0.042   0.006
    1UNL     O7   25  -0.160   0.069   0.009
    1UNL    C19   26  -0.203   0.181   0.097
    1UNL    C20   27  -0.188   0.156   0.244
    1UNL     O8   28  -0.214   0.267   0.337
    1UNL    C21   29  -0.348   0.228   0.050
    1UNL     O9   30  -0.410   0.341   0.120
    1UNL    C22   31  -0.440   0.115   0.031
    1UNL    O10   32  -0.567   0.151  -0.025
    1UNL    C23   33  -0.378   0.002  -0.062
    1UNL    O11   34  -0.350   0.061  -0.185
    1UNL     H1   35  -0.239  -0.387  -0.096
    1UNL     H2   36  -0.140  -0.537  -0.110
    1UNL     H3   37  -0.169  -0.479   0.046
    1UNL     H4   38   0.042  -0.410   0.152
    1UNL     H5   39   0.117  -0.487   0.006
    1UNL     H6   40   0.370  -0.267   0.139
    1UNL     H7   41   0.150  -0.188  -0.263
    1UNL     H8   42   0.009   0.098  -0.099
    1UNL     H9   43   0.040   0.019  -0.251
    1UNL    H10   44   0.317   0.407  -0.046
    1UNL    H11   45   0.570   0.483  -0.039
    1UNL    H12   46   0.737   0.314  -0.076
    1UNL    H13   47   0.686   0.068  -0.041
    1UNL    H14   48   0.441   0.009  -0.040
    1UNL    H15   49   0.194  -0.062   0.098
    1UNL    H16   50  -0.039  -0.218   0.198
    1UNL    H17   51  -0.055  -0.049   0.139
    1UNL    H18   52  -0.255  -0.082   0.112
    1UNL    H19   53  -0.126   0.260   0.061
    1UNL    H20   54  -0.085   0.132   0.265
    1UNL    H21   55  -0.251   0.077   0.274
    1UNL    H22   56  -0.272   0.339   0.294
    1UNL    H23   57  -0.333   0.268  -0.054
    1UNL    H24   58  -0.505   0.347   0.091
    1UNL    H25   59  -0.478   0.072   0.126
    1UNL    H26   60  -0.548   0.197  -0.111
    1UNL    H27   61  -0.441  -0.085  -0.064
    1UNL    H28   62  -0.273   0.012  -0.210
   0.00000   0.00000   0.00000   0.00000   0.00000   0.00000   0.00000   0.00000   0.00000
Generated with MDTraj, t= 90.0
 62
    1UNL     C1    1  -0.152  -0.437  -0.062
    1UNL     C2    2  -0.025  -0.358  -0.046
    1UNL     C3    3   0.089  -0.413   0.047
    1UNL     C4    4   0.203  -0.306   0.032
    1UNL     O1    5   0.306  -0.335   0.123
    1UNL     O2    6   0.243  -0.301  -0.106
    1UNL     C5    7   0.136  -0.247  -0.174
    1UNL     O3    8   0.038  -0.350  -0.179
    1UNL     C6    9   0.074  -0.140  -0.086
    1UNL     C7   10   0.064  -0.002  -0.137
    1UNL     O4   11   0.182   0.071  -0.152
    1UNL     C8   12   0.198   0.177  -0.063
    1UNL     O5   13   0.117   0.244  -0.004
    1UNL     C9   14   0.344   0.214  -0.060
    1UNL    C10   15   0.382   0.338  -0.018
    1UNL    C11   16   0.517   0.365   0.011
    1UNL    C12   17   0.613   0.264  -0.012
    1UNL    C13   18   0.567   0.143  -0.066
    1UNL    C14   19   0.438   0.123  -0.097
    1UNL    C15   20   0.142  -0.164   0.057
    1UNL    C16   21  -0.004  -0.159   0.115
    1UNL    C17   22  -0.059  -0.207  -0.020
    1UNL     O6   23  -0.189  -0.159  -0.061
    1UNL    C18   24  -0.244  -0.041   0.009
    1UNL     O7   25  -0.154   0.071   0.008
    1UNL    C19   26  -0.190   0.188   0.091
    1UNL    C20   27  -0.180   0.173   0.246
    1UNL     O8   28  -0.182   0.296   0.313
    1UNL    C21   29  -0.332   0.242   0.033
    1UNL     O9   30  -0.389   0.342   0.116
    1UNL    C22   31  -0.425   0.130   0.024
    1UNL    O10   32  -0.549   0.181  -0.019
    1UNL    C23   33  -0.371   0.007  -0.054
    1UNL    O11   34  -0.353   0.036  -0.191
    1UNL     H1   35  -0.186  -0.401  -0.160
    1UNL     H2   36  -0.144  -0.550  -0.059
    1UNL     H3   37  -0.222  -0.411   0.016
    1UNL     H4   38   0.054  -0.413   0.158
    1UNL     H5   39   0.127  -0.512   0.034
    1UNL     H6   40   0.382  -0.282   0.096
    1UNL     H7   41   0.170  -0.209  -0.263
    1UNL     H8   42   0.008   0.058  -0.067
    1UNL     H9   43   0.016   0.012  -0.242
    1UNL    H10   44   0.311   0.414   0.013
    1UNL    H11   45   0.541   0.458   0.055
    1UNL    H12   46   0.718   0.272   0.012
    1UNL    H13   47   0.642   0.068  -0.091
    1UNL    H14   48   0.398   0.021  -0.130
    1UNL    H15   49   0.217  -0.084   0.088
    1UNL    H16   50  -0.013  -0.234   0.200
    1UNL    H17   51  -0.034  -0.059   0.134
    1UNL    H18   52  -0.250  -0.077   0.115
    1UNL    H19   53  -0.108   0.263   0.059
    1UNL    H20   54  -0.083   0.137   0.277
    1UNL    H21   55  -0.253   0.110   0.293
    1UNL    H22   56  -0.260   0.349   0.290
    1UNL    H23   57  -0.317   0.302  -0.062
    1UNL    H24   58  -0.493   0.342   0.109
    1UNL    H25   59  -0.451   0.105   0.130
    1UNL    H26   60  -0.534   0.208  -0.114
    1UNL    H27   61  -0.452  -0.068  -0.050
    1UNL    H28   62  -0.293  -0.030  -0.231
   0.00000   0.00000   0.00000   0.00000   0.00000   0.00000   0.00000   0.00000   0.00000
Generated with MDTraj, t= 91.0
 62
    1UNL     C1    1  -0.169  -0.432  -0.044
    1UNL     C2    2  -0.035  -0.355  -0.051
    1UNL     C3    3   0.083  -0.408   0.036
    1UNL     C4    4   0.201  -0.298   0.030
    1UNL     O1    5   0.307  -0.324   0.120
    1UNL     O2    6   0.234  -0.300  -0.113
    1UNL     C5    7   0.120  -0.251  -0.182
    1UNL     O3    8   0.019  -0.349  -0.187
    1UNL     C6    9   0.061  -0.132  -0.086
    1UNL     C7   10   0.058   0.012  -0.150
    1UNL     O4   11   0.182   0.070  -0.180
    1UNL     C8   12   0.202   0.169  -0.078
    1UNL     O5   13   0.110   0.234  -0.036
    1UNL     C9   14   0.338   0.200  -0.052
    1UNL    C10   15   0.359   0.299   0.037
    1UNL    C11   16   0.486   0.347   0.063
    1UNL    C12   17   0.595   0.284   0.010
    1UNL    C13   18   0.577   0.186  -0.089
    1UNL    C14   19   0.450   0.145  -0.119
    1UNL    C15   20   0.140  -0.159   0.050
    1UNL    C16   21   0.008  -0.160   0.120
    1UNL    C17   22  -0.063  -0.200  -0.017
    1UNL     O6   23  -0.196  -0.158  -0.047
    1UNL    C18   24  -0.234  -0.047   0.035
    1UNL     O7   25  -0.137   0.062   0.033
    1UNL    C19   26  -0.174   0.186   0.093
    1UNL    C20   27  -0.187   0.182   0.242
    1UNL     O8   28  -0.189   0.308   0.297
    1UNL    C21   29  -0.311   0.233   0.030
    1UNL     O9   30  -0.347   0.357   0.077
    1UNL    C22   31  -0.418   0.125   0.041
    1UNL    O10   32  -0.521   0.171  -0.040
    1UNL    C23   33  -0.363  -0.008  -0.024
    1UNL    O11   34  -0.343   0.021  -0.165
    1UNL     H1   35  -0.247  -0.371  -0.089
    1UNL     H2   36  -0.165  -0.530  -0.100
    1UNL     H3   37  -0.191  -0.463   0.057
    1UNL     H4   38   0.061  -0.456   0.133
    1UNL     H5   39   0.126  -0.495  -0.016
    1UNL     H6   40   0.331  -0.415   0.111
    1UNL     H7   41   0.139  -0.217  -0.278
    1UNL     H8   42   0.006   0.078  -0.087
    1UNL     H9   43   0.000   0.001  -0.250
    1UNL    H10   44   0.275   0.340   0.088
    1UNL    H11   45   0.505   0.429   0.134
    1UNL    H12   46   0.698   0.307   0.032
    1UNL    H13   47   0.660   0.138  -0.140
    1UNL    H14   48   0.425   0.079  -0.196
    1UNL    H15   49   0.222  -0.082   0.066
    1UNL    H16   50   0.009  -0.232   0.203
    1UNL    H17   51  -0.027  -0.063   0.159
    1UNL    H18   52  -0.239  -0.089   0.136
    1UNL    H19   53  -0.082   0.247   0.067
    1UNL    H20   54  -0.104   0.130   0.291
    1UNL    H21   55  -0.279   0.128   0.270
    1UNL    H22   56  -0.240   0.364   0.233
    1UNL    H23   57  -0.294   0.239  -0.081
    1UNL    H24   58  -0.437   0.366   0.038
    1UNL    H25   59  -0.449   0.109   0.145
    1UNL    H26   60  -0.499   0.149  -0.131
    1UNL    H27   61  -0.437  -0.093  -0.012
    1UNL    H28   62  -0.285  -0.048  -0.211
   0.00000   0.00000   0.00000   0.00000   0.00000   0.00000   0.00000   0.00000   0.00000
Generated with MDTraj, t= 92.0
 62
    1UNL     C1    1  -0.157  -0.462  -0.004
    1UNL     C2    2  -0.036  -0.364  -0.036
    1UNL     C3    3   0.097  -0.415   0.028
    1UNL     C4    4   0.214  -0.312   0.008
    1UNL     O1    5   0.333  -0.335   0.076
    1UNL     O2    6   0.228  -0.315  -0.139
    1UNL     C5    7   0.100  -0.264  -0.193
    1UNL     O3    8  -0.007  -0.363  -0.177
    1UNL     C6    9   0.062  -0.146  -0.088
    1UNL     C7   10   0.064  -0.003  -0.154
    1UNL     O4   11   0.203   0.047  -0.161
    1UNL     C8   12   0.208   0.158  -0.080
    1UNL     O5   13   0.111   0.208  -0.032
    1UNL     C9   14   0.338   0.220  -0.054
    1UNL    C10   15   0.355   0.283   0.073
    1UNL    C11   16   0.481   0.321   0.104
    1UNL    C12   17   0.588   0.296   0.021
    1UNL    C13   18   0.567   0.229  -0.100
    1UNL    C14   19   0.441   0.197  -0.140
    1UNL    C15   20   0.152  -0.168   0.042
    1UNL    C16   21   0.018  -0.156   0.123
    1UNL    C17   22  -0.060  -0.206  -0.008
    1UNL     O6   23  -0.198  -0.167  -0.027
    1UNL    C18   24  -0.235  -0.046   0.042
    1UNL     O7   25  -0.137   0.067   0.032
    1UNL    C19   26  -0.167   0.190   0.090
    1UNL    C20   27  -0.189   0.191   0.243
    1UNL     O8   28  -0.238   0.312   0.297
    1UNL    C21   29  -0.298   0.244   0.019
    1UNL     O9   30  -0.324   0.377   0.054
    1UNL    C22   31  -0.417   0.150   0.025
    1UNL    O10   32  -0.526   0.201  -0.049
    1UNL    C23   33  -0.369   0.010  -0.019
    1UNL    O11   34  -0.361   0.021  -0.159
    1UNL     H1   35  -0.243  -0.446  -0.070
    1UNL     H2   36  -0.127  -0.566  -0.022
    1UNL     H3   37  -0.189  -0.471   0.102
    1UNL     H4   38   0.085  -0.434   0.129
    1UNL     H5   39   0.129  -0.516  -0.010
    1UNL     H6   40   0.399  -0.273   0.063
    1UNL     H7   41   0.113  -0.243  -0.293
    1UNL     H8   42  -0.003   0.063  -0.106
    1UNL     H9   43   0.033  -0.022  -0.261
    1UNL    H10   44   0.276   0.278   0.149
    1UNL    H11   45   0.501   0.377   0.193
    1UNL    H12   46   0.684   0.340   0.045
    1UNL    H13   47   0.644   0.218  -0.176
    1UNL    H14   48   0.422   0.143  -0.234
    1UNL    H15   49   0.231  -0.090   0.064
    1UNL    H16   50   0.021  -0.220   0.208
    1UNL    H17   51  -0.014  -0.053   0.157
    1UNL    H18   52  -0.259  -0.066   0.146
    1UNL    H19   53  -0.086   0.261   0.075
    1UNL    H20   54  -0.089   0.169   0.289
    1UNL    H21   55  -0.257   0.108   0.270
    1UNL    H22   56  -0.277   0.369   0.224
    1UNL    H23   57  -0.269   0.247  -0.087
    1UNL    H24   58  -0.404   0.403   0.010
    1UNL    H25   59  -0.447   0.146   0.129
    1UNL    H26   60  -0.515   0.188  -0.147
    1UNL    H27   61  -0.451  -0.067   0.008
    1UNL    H28   62  -0.317  -0.058  -0.192
   0.00000   0.00000   0.00000   0.00000   0.00000   0.00000   0.00000   0.00000   0.00000
Generated with MDTraj, t= 93.0
 62
    1UNL     C1    1  -0.163  -0.428   0.021
    1UNL     C2    2  -0.036  -0.356  -0.020
    1UNL     C3    3   0.090  -0.414   0.052
    1UNL     C4    4   0.205  -0.321  -0.008
    1UNL     O1    5   0.325  -0.349   0.052
    1UNL     O2    6   0.205  -0.337  -0.150
    1UNL     C5    7   0.083  -0.272  -0.198
    1UNL     O3    8  -0.031  -0.360  -0.163
    1UNL     C6    9   0.059  -0.151  -0.106
    1UNL     C7   10   0.063  -0.002  -0.166
    1UNL     O4   11   0.191   0.064  -0.159
    1UNL     C8   12   0.197   0.164  -0.059
    1UNL     O5   13   0.109   0.212   0.003
    1UNL     C9   14   0.336   0.212  -0.034
    1UNL    C10   15   0.373   0.250   0.098
    1UNL    C11   16   0.492   0.312   0.115
    1UNL    C12   17   0.581   0.322   0.006
    1UNL    C13   18   0.549   0.265  -0.112
    1UNL    C14   19   0.423   0.210  -0.135
    1UNL    C15   20   0.166  -0.170   0.014
    1UNL    C16   21   0.048  -0.138   0.116
    1UNL    C17   22  -0.049  -0.195   0.005
    1UNL     O6   23  -0.187  -0.154  -0.021
    1UNL    C18   24  -0.228  -0.040   0.041
    1UNL     O7   25  -0.129   0.062   0.037
    1UNL    C19   26  -0.165   0.185   0.093
    1UNL    C20   27  -0.198   0.189   0.247
    1UNL     O8   28  -0.244   0.312   0.304
    1UNL    C21   29  -0.284   0.237   0.005
    1UNL     O9   30  -0.320   0.367   0.042
    1UNL    C22   31  -0.406   0.147   0.013
    1UNL    O10   32  -0.519   0.194  -0.060
    1UNL    C23   33  -0.353   0.008  -0.036
    1UNL    O11   34  -0.337  -0.008  -0.177
    1UNL     H1   35  -0.250  -0.394  -0.041
    1UNL     H2   36  -0.161  -0.534   0.012
    1UNL     H3   37  -0.181  -0.412   0.130
    1UNL     H4   38   0.088  -0.408   0.156
    1UNL     H5   39   0.121  -0.520   0.035
    1UNL     H6   40   0.356  -0.432   0.024
    1UNL     H7   41   0.099  -0.252  -0.298
    1UNL     H8   42  -0.005   0.051  -0.096
    1UNL     H9   43   0.012  -0.009  -0.262
    1UNL    H10   44   0.310   0.231   0.182
    1UNL    H11   45   0.523   0.346   0.213
    1UNL    H12   46   0.661   0.392   0.010
    1UNL    H13   47   0.620   0.291  -0.189
    1UNL    H14   48   0.399   0.164  -0.230
    1UNL    H15   49   0.255  -0.100   0.013
    1UNL    H16   50   0.062  -0.202   0.199
    1UNL    H17   51   0.033  -0.028   0.136
    1UNL    H18   52  -0.257  -0.053   0.143
    1UNL    H19   53  -0.088   0.255   0.075
    1UNL    H20   54  -0.101   0.162   0.298
    1UNL    H21   55  -0.267   0.103   0.271
    1UNL    H22   56  -0.293   0.359   0.237
    1UNL    H23   57  -0.250   0.247  -0.097
    1UNL    H24   58  -0.410   0.396  -0.001
    1UNL    H25   59  -0.445   0.143   0.116
    1UNL    H26   60  -0.509   0.190  -0.160
    1UNL    H27   61  -0.428  -0.079  -0.018
    1UNL    H28   62  -0.282  -0.091  -0.197
   0.00000   0.00000   0.00000   0.00000   0.00000   0.00000   0.00000   0.00000   0.00000
Generated with MDTraj, t= 94.0
 62
    1UNL     C1    1  -0.167  -0.433   0.020
    1UNL     C2    2  -0.039  -0.362  -0.023
    1UNL     C3    3   0.089  -0.417   0.042
    1UNL     C4    4   0.207  -0.321  -0.007
    1UNL     O1    5   0.333  -0.341   0.054
    1UNL     O2    6   0.207  -0.328  -0.151
    1UNL     C5    7   0.086  -0.277  -0.200
    1UNL     O3    8  -0.029  -0.365  -0.167
    1UNL     C6    9   0.061  -0.150  -0.097
    1UNL     C7   10   0.064   0.004  -0.151
    1UNL     O4   11   0.183   0.058  -0.166
    1UNL     C8   12   0.198   0.130  -0.047
    1UNL     O5   13   0.123   0.143   0.044
    1UNL     C9   14   0.328   0.207  -0.050
    1UNL    C10   15   0.365   0.250   0.076
    1UNL    C11   16   0.488   0.306   0.105
    1UNL    C12   17   0.577   0.319   0.002
    1UNL    C13   18   0.548   0.292  -0.127
    1UNL    C14   19   0.424   0.234  -0.154
    1UNL    C15   20   0.161  -0.176   0.023
    1UNL    C16   21   0.040  -0.159   0.118
    1UNL    C17   22  -0.049  -0.202   0.001
    1UNL     O6   23  -0.181  -0.148  -0.015
    1UNL    C18   24  -0.227  -0.037   0.054
    1UNL     O7   25  -0.132   0.072   0.055
    1UNL    C19   26  -0.188   0.200   0.101
    1UNL    C20   27  -0.213   0.200   0.249
    1UNL     O8   28  -0.223   0.329   0.305
    1UNL    C21   29  -0.303   0.247   0.014
    1UNL     O9   30  -0.348   0.371   0.053
    1UNL    C22   31  -0.417   0.149   0.005
    1UNL    O10   32  -0.498   0.192  -0.097
    1UNL    C23   33  -0.346   0.012  -0.040
    1UNL    O11   34  -0.297   0.014  -0.175
    1UNL     H1   35  -0.257  -0.372  -0.004
    1UNL     H2   36  -0.185  -0.530  -0.021
    1UNL     H3   37  -0.157  -0.452   0.130
    1UNL     H4   38   0.081  -0.420   0.150
    1UNL     H5   39   0.116  -0.518   0.015
    1UNL     H6   40   0.390  -0.359  -0.023
    1UNL     H7   41   0.093  -0.250  -0.299
    1UNL     H8   42   0.002   0.058  -0.076
    1UNL     H9   43   0.014   0.006  -0.243
    1UNL    H10   44   0.305   0.217   0.161
    1UNL    H11   45   0.517   0.328   0.208
    1UNL    H12   46   0.678   0.351   0.030
    1UNL    H13   47   0.611   0.314  -0.212
    1UNL    H14   48   0.405   0.213  -0.257
    1UNL    H15   49   0.246  -0.103   0.041
    1UNL    H16   50   0.037  -0.229   0.201
    1UNL    H17   51   0.014  -0.059   0.152
    1UNL    H18   52  -0.253  -0.066   0.153
    1UNL    H19   53  -0.108   0.265   0.075
    1UNL    H20   54  -0.136   0.140   0.306
    1UNL    H21   55  -0.310   0.145   0.270
    1UNL    H22   56  -0.279   0.377   0.237
    1UNL    H23   57  -0.267   0.247  -0.088
    1UNL    H24   58  -0.432   0.388   0.005
    1UNL    H25   59  -0.474   0.137   0.099
    1UNL    H26   60  -0.463   0.170  -0.183
    1UNL    H27   61  -0.415  -0.078  -0.046
    1UNL    H28   62  -0.224  -0.048  -0.186
   0.00000   0.00000   0.00000   0.00000   0.00000   0.00000   0.00000   0.00000   0.00000
Generated with MDTraj, t= 95.0
 62
    1UNL     C1    1  -0.153  -0.447   0.008
    1UNL     C2    2  -0.036  -0.359  -0.039
    1UNL     C3    3   0.095  -0.410   0.028
    1UNL     C4    4   0.212  -0.310   0.002
    1UNL     O1    5   0.327  -0.335   0.080
    1UNL     O2    6   0.227  -0.308  -0.142
    1UNL     C5    7   0.101  -0.252  -0.183
    1UNL     O3    8  -0.003  -0.355  -0.181
    1UNL     C6    9   0.053  -0.139  -0.085
    1UNL     C7   10   0.042   0.013  -0.139
    1UNL     O4   11   0.166   0.073  -0.153
    1UNL     C8   12   0.217   0.103  -0.028
    1UNL     O5   13   0.162   0.092   0.076
    1UNL     C9   14   0.344   0.181  -0.038
    1UNL    C10   15   0.382   0.238   0.078
    1UNL    C11   16   0.497   0.316   0.077
    1UNL    C12   17   0.558   0.344  -0.040
    1UNL    C13   18   0.520   0.283  -0.159
    1UNL    C14   19   0.410   0.200  -0.158
    1UNL    C15   20   0.151  -0.169   0.045
    1UNL    C16   21   0.025  -0.171   0.129
    1UNL    C17   22  -0.060  -0.210   0.001
    1UNL     O6   23  -0.197  -0.167  -0.018
    1UNL    C18   24  -0.242  -0.040   0.038
    1UNL     O7   25  -0.138   0.061   0.058
    1UNL    C19   26  -0.180   0.195   0.111
    1UNL    C20   27  -0.215   0.193   0.257
    1UNL     O8   28  -0.238   0.325   0.297
    1UNL    C21   29  -0.292   0.246   0.019
    1UNL     O9   30  -0.348   0.371   0.059
    1UNL    C22   31  -0.419   0.150  -0.007
    1UNL    O10   32  -0.500   0.217  -0.101
    1UNL    C23   33  -0.351   0.020  -0.062
    1UNL    O11   34  -0.296   0.046  -0.181
    1UNL     H1   35  -0.237  -0.436  -0.062
    1UNL     H2   36  -0.127  -0.553   0.006
    1UNL     H3   37  -0.183  -0.429   0.113
    1UNL     H4   38   0.084  -0.422   0.139
    1UNL     H5   39   0.114  -0.504  -0.009
    1UNL     H6   40   0.404  -0.327   0.014
    1UNL     H7   41   0.107  -0.209  -0.276
    1UNL     H8   42  -0.011   0.054  -0.049
    1UNL     H9   43  -0.015   0.031  -0.223
    1UNL    H10   44   0.333   0.212   0.169
    1UNL    H11   45   0.550   0.349   0.165
    1UNL    H12   46   0.645   0.401  -0.039
    1UNL    H13   47   0.574   0.307  -0.249
    1UNL    H14   48   0.378   0.164  -0.257
    1UNL    H15   49   0.237  -0.098   0.063
    1UNL    H16   50   0.024  -0.242   0.215
    1UNL    H17   51  -0.013  -0.079   0.165
    1UNL    H18   52  -0.285  -0.060   0.132
    1UNL    H19   53  -0.096   0.262   0.091
    1UNL    H20   54  -0.132   0.153   0.320
    1UNL    H21   55  -0.302   0.132   0.290
    1UNL    H22   56  -0.282   0.375   0.225
    1UNL    H23   57  -0.240   0.270  -0.073
    1UNL    H24   58  -0.427   0.383   0.009
    1UNL    H25   59  -0.469   0.141   0.092
    1UNL    H26   60  -0.451   0.214  -0.190
    1UNL    H27   61  -0.435  -0.045  -0.088
    1UNL    H28   62  -0.223  -0.021  -0.204
   0.00000   0.00000   0.00000   0.00000   0.00000   0.00000   0.00000   0.00000   0.00000
Generated with MDTraj, t= 96.0
 62
    1UNL     C1    1  -0.162  -0.451  -0.059
    1UNL     C2    2  -0.046  -0.358  -0.054
    1UNL     C3    3   0.073  -0.420   0.026
    1UNL     C4    4   0.185  -0.315   0.031
    1UNL     O1    5   0.298  -0.346   0.109
    1UNL     O2    6   0.222  -0.297  -0.110
    1UNL     C5    7   0.105  -0.238  -0.171
    1UNL     O3    8   0.007  -0.332  -0.186
    1UNL     C6    9   0.050  -0.134  -0.064
    1UNL     C7   10   0.054   0.016  -0.107
    1UNL     O4   11   0.179   0.071  -0.132
    1UNL     C8   12   0.227   0.134  -0.021
    1UNL     O5   13   0.181   0.135   0.086
    1UNL     C9   14   0.355   0.207  -0.038
    1UNL    C10   15   0.422   0.275   0.070
    1UNL    C11   16   0.541   0.341   0.036
    1UNL    C12   17   0.580   0.346  -0.093
    1UNL    C13   18   0.518   0.277  -0.193
    1UNL    C14   19   0.406   0.203  -0.165
    1UNL    C15   20   0.128  -0.172   0.066
    1UNL    C16   21  -0.010  -0.174   0.138
    1UNL    C17   22  -0.073  -0.209  -0.006
    1UNL     O6   23  -0.206  -0.171  -0.026
    1UNL    C18   24  -0.245  -0.044   0.030
    1UNL     O7   25  -0.139   0.049   0.059
    1UNL    C19   26  -0.186   0.169   0.121
    1UNL    C20   27  -0.239   0.161   0.264
    1UNL     O8   28  -0.256   0.291   0.318
    1UNL    C21   29  -0.271   0.240   0.016
    1UNL     O9   30  -0.314   0.366   0.066
    1UNL    C22   31  -0.406   0.149  -0.008
    1UNL    O10   32  -0.497   0.209  -0.099
    1UNL    C23   33  -0.349   0.012  -0.072
    1UNL    O11   34  -0.301   0.025  -0.195
    1UNL     H1   35  -0.242  -0.392  -0.102
    1UNL     H2   36  -0.146  -0.542  -0.126
    1UNL     H3   37  -0.183  -0.487   0.041
    1UNL     H4   38   0.044  -0.438   0.132
    1UNL     H5   39   0.111  -0.505  -0.022
    1UNL     H6   40   0.365  -0.391   0.042
    1UNL     H7   41   0.129  -0.198  -0.264
    1UNL     H8   42   0.003   0.097  -0.046
    1UNL     H9   43   0.004   0.019  -0.197
    1UNL    H10   44   0.380   0.270   0.171
    1UNL    H11   45   0.592   0.374   0.128
    1UNL    H12   46   0.657   0.418  -0.128
    1UNL    H13   47   0.552   0.299  -0.294
    1UNL    H14   48   0.357   0.156  -0.245
    1UNL    H15   49   0.198  -0.086   0.092
    1UNL    H16   50  -0.013  -0.251   0.217
    1UNL    H17   51  -0.041  -0.077   0.167
    1UNL    H18   52  -0.278  -0.068   0.127
    1UNL    H19   53  -0.094   0.234   0.133
    1UNL    H20   54  -0.185   0.102   0.338
    1UNL    H21   55  -0.342   0.120   0.259
    1UNL    H22   56  -0.296   0.350   0.253
    1UNL    H23   57  -0.222   0.241  -0.084
    1UNL    H24   58  -0.383   0.394   0.000
    1UNL    H25   59  -0.465   0.133   0.086
    1UNL    H26   60  -0.465   0.195  -0.189
    1UNL    H27   61  -0.429  -0.056  -0.068
    1UNL    H28   62  -0.258  -0.056  -0.222
   0.00000   0.00000   0.00000   0.00000   0.00000   0.00000   0.00000   0.00000   0.00000
Generated with MDTraj, t= 97.0
 62
    1UNL     C1    1  -0.169  -0.437  -0.110
    1UNL     C2    2  -0.044  -0.355  -0.073
    1UNL     C3    3   0.060  -0.440   0.017
    1UNL     C4    4   0.172  -0.333   0.053
    1UNL     O1    5   0.280  -0.387   0.133
    1UNL     O2    6   0.232  -0.297  -0.077
    1UNL     C5    7   0.129  -0.226  -0.146
    1UNL     O3    8   0.023  -0.315  -0.194
    1UNL     C6    9   0.060  -0.142  -0.037
    1UNL     C7   10   0.066   0.008  -0.058
    1UNL     O4   11   0.190   0.072  -0.118
    1UNL     C8   12   0.237   0.172  -0.036
    1UNL     O5   13   0.193   0.196   0.070
    1UNL     C9   14   0.367   0.231  -0.071
    1UNL    C10   15   0.432   0.301   0.030
    1UNL    C11   16   0.558   0.355   0.001
    1UNL    C12   17   0.613   0.342  -0.123
    1UNL    C13   18   0.539   0.276  -0.222
    1UNL    C14   19   0.420   0.215  -0.194
    1UNL    C15   20   0.111  -0.195   0.104
    1UNL    C16   21  -0.039  -0.204   0.140
    1UNL    C17   22  -0.075  -0.215  -0.005
    1UNL     O6   23  -0.203  -0.159  -0.044
    1UNL    C18   24  -0.255  -0.055   0.036
    1UNL     O7   25  -0.146   0.037   0.076
    1UNL    C19   26  -0.204   0.156   0.136
    1UNL    C20   27  -0.266   0.138   0.274
    1UNL     O8   28  -0.300   0.260   0.335
    1UNL    C21   29  -0.287   0.233   0.036
    1UNL     O9   30  -0.313   0.369   0.083
    1UNL    C22   31  -0.412   0.151  -0.010
    1UNL    O10   32  -0.464   0.220  -0.122
    1UNL    C23   33  -0.359   0.018  -0.064
    1UNL    O11   34  -0.313   0.030  -0.195
    1UNL     H1   35  -0.225  -0.372  -0.177
    1UNL     H2   36  -0.147  -0.532  -0.170
    1UNL     H3   37  -0.227  -0.465  -0.024
    1UNL     H4   38   0.026  -0.484   0.110
    1UNL     H5   39   0.100  -0.517  -0.050
    1UNL     H6   40   0.352  -0.436   0.074
    1UNL     H7   41   0.165  -0.167  -0.224
    1UNL     H8   42   0.036   0.068   0.031
    1UNL     H9   43  -0.004   0.038  -0.129
    1UNL    H10   44   0.392   0.295   0.129
    1UNL    H11   45   0.613   0.407   0.073
    1UNL    H12   46   0.708   0.389  -0.136
    1UNL    H13   47   0.578   0.289  -0.321
    1UNL    H14   48   0.368   0.165  -0.279
    1UNL    H15   49   0.185  -0.119   0.147
    1UNL    H16   50  -0.064  -0.293   0.196
    1UNL    H17   51  -0.080  -0.117   0.189
    1UNL    H18   52  -0.298  -0.092   0.125
    1UNL    H19   53  -0.109   0.217   0.156
    1UNL    H20   54  -0.196   0.079   0.329
    1UNL    H21   55  -0.359   0.084   0.256
    1UNL    H22   56  -0.321   0.326   0.261
    1UNL    H23   57  -0.210   0.247  -0.046
    1UNL    H24   58  -0.361   0.431   0.019
    1UNL    H25   59  -0.487   0.142   0.073
    1UNL    H26   60  -0.434   0.181  -0.206
    1UNL    H27   61  -0.446  -0.041  -0.084
    1UNL    H28   62  -0.256  -0.052  -0.214
   0.00000   0.00000   0.00000   0.00000   0.00000   0.00000   0.00000   0.00000   0.00000
Generated with MDTraj, t= 98.0
 62
    1UNL     C1    1  -0.167  -0.418  -0.134
    1UNL     C2    2  -0.040  -0.354  -0.088
    1UNL     C3    3   0.061  -0.441  -0.003
    1UNL     C4    4   0.175  -0.346   0.058
    1UNL     O1    5   0.238  -0.408   0.170
    1UNL     O2    6   0.246  -0.307  -0.061
    1UNL     C5    7   0.156  -0.222  -0.137
    1UNL     O3    8   0.049  -0.308  -0.197
    1UNL     C6    9   0.074  -0.137  -0.027
    1UNL     C7   10   0.086   0.014  -0.039
    1UNL     O4   11   0.217   0.055  -0.081
    1UNL     C8   12   0.242   0.177  -0.025
    1UNL     O5   13   0.168   0.236   0.044
    1UNL     C9   14   0.373   0.221  -0.068
    1UNL    C10   15   0.445   0.310   0.007
    1UNL    C11   16   0.554   0.370  -0.046
    1UNL    C12   17   0.600   0.335  -0.173
    1UNL    C13   18   0.531   0.246  -0.250
    1UNL    C14   19   0.421   0.184  -0.197
    1UNL    C15   20   0.113  -0.204   0.108
    1UNL    C16   21  -0.036  -0.219   0.137
    1UNL    C17   22  -0.068  -0.212  -0.012
    1UNL     O6   23  -0.194  -0.145  -0.054
    1UNL    C18   24  -0.250  -0.048   0.023
    1UNL     O7   25  -0.152   0.038   0.084
    1UNL    C19   26  -0.214   0.146   0.158
    1UNL    C20   27  -0.302   0.114   0.280
    1UNL     O8   28  -0.349   0.230   0.339
    1UNL    C21   29  -0.289   0.238   0.058
    1UNL     O9   30  -0.346   0.364   0.101
    1UNL    C22   31  -0.409   0.156  -0.009
    1UNL    O10   32  -0.465   0.238  -0.114
    1UNL    C23   33  -0.344   0.031  -0.071
    1UNL    O11   34  -0.273   0.072  -0.185
    1UNL     H1   35  -0.219  -0.350  -0.204
    1UNL     H2   36  -0.159  -0.522  -0.173
    1UNL     H3   37  -0.221  -0.422  -0.038
    1UNL     H4   38   0.002  -0.489   0.070
    1UNL     H5   39   0.106  -0.516  -0.076
    1UNL     H6   40   0.338  -0.377   0.172
    1UNL     H7   41   0.206  -0.155  -0.201
    1UNL     H8   42   0.059   0.075   0.051
    1UNL     H9   43   0.015   0.045  -0.108
    1UNL    H10   44   0.405   0.333   0.106
    1UNL    H11   45   0.618   0.434   0.018
    1UNL    H12   46   0.699   0.368  -0.203
    1UNL    H13   47   0.560   0.216  -0.350
    1UNL    H14   48   0.356   0.134  -0.261
    1UNL    H15   49   0.172  -0.151   0.188
    1UNL    H16   50  -0.066  -0.309   0.184
    1UNL    H17   51  -0.083  -0.136   0.192
    1UNL    H18   52  -0.308  -0.091   0.100
    1UNL    H19   53  -0.131   0.207   0.209
    1UNL    H20   54  -0.245   0.064   0.352
    1UNL    H21   55  -0.383   0.053   0.246
    1UNL    H22   56  -0.362   0.295   0.270
    1UNL    H23   57  -0.215   0.255  -0.027
    1UNL    H24   58  -0.395   0.406   0.033
    1UNL    H25   59  -0.487   0.118   0.061
    1UNL    H26   60  -0.404   0.245  -0.195
    1UNL    H27   61  -0.411  -0.040  -0.120
    1UNL    H28   62  -0.197   0.014  -0.193
   0.00000   0.00000   0.00000   0.00000   0.00000   0.00000   0.00000   0.00000   0.00000
Generated with MDTraj, t= 99.0
 62
    1UNL     C1    1  -0.155  -0.422  -0.142
    1UNL     C2    2  -0.034  -0.348  -0.087
    1UNL     C3    3   0.047  -0.442   0.012
    1UNL     C4    4   0.165  -0.355   0.065
    1UNL     O1    5   0.231  -0.421   0.171
    1UNL     O2    6   0.239  -0.315  -0.048
    1UNL     C5    7   0.152  -0.222  -0.121
    1UNL     O3    8   0.052  -0.310  -0.187
    1UNL     C6    9   0.076  -0.141  -0.009
    1UNL     C7   10   0.097   0.011  -0.016
    1UNL     O4   11   0.230   0.045  -0.047
    1UNL     C8   12   0.242   0.182  -0.024
    1UNL     O5   13   0.170   0.257   0.037
    1UNL     C9   14   0.367   0.238  -0.089
    1UNL    C10   15   0.433   0.351  -0.040
    1UNL    C11   16   0.551   0.391  -0.089
    1UNL    C12   17   0.601   0.323  -0.205
    1UNL    C13   18   0.545   0.205  -0.250
    1UNL    C14   19   0.417   0.174  -0.200
    1UNL    C15   20   0.098  -0.221   0.124
    1UNL    C16   21  -0.057  -0.223   0.149
    1UNL    C17   22  -0.071  -0.212  -0.007
    1UNL     O6   23  -0.166  -0.129  -0.084
    1UNL    C18   24  -0.231  -0.035  -0.006
    1UNL     O7   25  -0.154   0.048   0.091
    1UNL    C19   26  -0.230   0.140   0.169
    1UNL    C20   27  -0.318   0.077   0.275
    1UNL     O8   28  -0.374   0.181   0.348
    1UNL    C21   29  -0.301   0.242   0.073
    1UNL     O9   30  -0.374   0.347   0.131
    1UNL    C22   31  -0.390   0.163  -0.025
    1UNL    O10   32  -0.472   0.255  -0.092
    1UNL    C23   33  -0.311   0.058  -0.105
    1UNL    O11   34  -0.221   0.120  -0.192
    1UNL     H1   35  -0.226  -0.353  -0.194
    1UNL     H2   36  -0.123  -0.495  -0.213
    1UNL     H3   37  -0.205  -0.475  -0.056
    1UNL     H4   38  -0.016  -0.480   0.089
    1UNL     H5   39   0.083  -0.524  -0.059
    1UNL     H6   40   0.318  -0.451   0.141
    1UNL     H7   41   0.211  -0.158  -0.181
    1UNL     H8   42   0.060   0.065   0.075
    1UNL     H9   43   0.038   0.061  -0.090
    1UNL    H10   44   0.385   0.397   0.043
    1UNL    H11   45   0.611   0.464  -0.040
    1UNL    H12   46   0.703   0.340  -0.243
    1UNL    H13   47   0.591   0.152  -0.332
    1UNL    H14   48   0.357   0.091  -0.243
    1UNL    H15   49   0.163  -0.164   0.195
    1UNL    H16   50  -0.094  -0.315   0.187
    1UNL    H17   51  -0.090  -0.126   0.194
    1UNL    H18   52  -0.306  -0.084   0.051
    1UNL    H19   53  -0.161   0.202   0.232
    1UNL    H20   54  -0.275   0.004   0.339
    1UNL    H21   55  -0.404   0.030   0.230
    1UNL    H22   56  -0.389   0.257   0.287
    1UNL    H23   57  -0.223   0.293   0.009
    1UNL    H24   58  -0.448   0.373   0.071
    1UNL    H25   59  -0.451   0.100   0.041
    1UNL    H26   60  -0.425   0.293  -0.165
    1UNL    H27   61  -0.370  -0.002  -0.179
    1UNL    H28   62  -0.157   0.047  -0.218
   0.00000   0.00000   0.00000   0.00000   0.00000   0.00000   0.00000   0.00000   0.00000
