1TPCN05718
13
    1res  C1    1    0.666   0.064   0.252
    1res  C2    2    0.406  -0.113   0.117
    1res  C3    3    0.340  -0.149  -0.167
    1res  C4    4    0.062  -0.036  -0.150
    1res  C5    5   -0.042  -0.252  -0.076
    1res  C6    6   -0.080  -0.127   0.160
    1res  C7    7   -0.377  -0.112  -0.123
    1res  C8    8   -0.462  -0.047   0.154
    1res  C9    9   -0.685   0.142   0.003
    1res  C10   10   -0.261   0.145  -0.122
    1res  C11   11   -0.046   0.139   0.072
    1res  C12   12    0.197   0.173  -0.126
    1res  C13   13    0.584   0.084  -0.111
  10.00000  10.00000  10.00000
