Generated with MDTraj, t= 0.0
 106
    1UNL     C1    1  -0.660  -0.140   0.075
    1UNL     C2    2  -0.552  -0.152  -0.032
    1UNL     C3    3  -0.434  -0.054  -0.014
    1UNL     C4    4  -0.480   0.093  -0.011
    1UNL     N1    5  -0.365   0.187  -0.004
    1UNL     C5    6  -0.403   0.330  -0.006
    1UNL     C6    7  -0.267   0.155   0.107
    1UNL     C7    8  -0.126   0.133   0.050
    1UNL     C8    9  -0.125   0.079  -0.090
    1UNL     C9   10  -0.145  -0.050  -0.137
    1UNL     N2   11  -0.134  -0.049  -0.274
    1UNL    C10   12  -0.109   0.079  -0.318
    1UNL    C11   13  -0.089   0.132  -0.446
    1UNL    C12   14  -0.064   0.266  -0.458
    1UNL    C13   15  -0.058   0.349  -0.345
    1UNL    C14   16  -0.077   0.299  -0.219
    1UNL    C15   17  -0.103   0.162  -0.204
    1UNL    C16   18  -0.168  -0.181  -0.065
    1UNL    C17   19  -0.047  -0.271  -0.074
    1UNL    C18   20  -0.063  -0.407  -0.096
    1UNL     O1   21  -0.194  -0.453  -0.117
    1UNL    C19   22  -0.206  -0.592  -0.137
    1UNL    C20   23   0.051  -0.492  -0.096
    1UNL    C21   24   0.177  -0.444  -0.072
    1UNL    C22   25   0.194  -0.307  -0.048
    1UNL    C23   26   0.309  -0.225  -0.019
    1UNL    C24   27   0.264  -0.096  -0.006
    1UNL     N3   28   0.128  -0.095  -0.024
    1UNL    C25   29   0.082  -0.222  -0.050
    1UNL    C26   30   0.338   0.033   0.024
    1UNL    C27   31   0.280   0.085   0.156
    1UNL     O2   32   0.325   0.044   0.261
    1UNL     O3   33   0.177   0.174   0.146
    1UNL    C28   34   0.133   0.208   0.273
    1UNL    C29   35   0.312   0.133  -0.093
    1UNL    C30   36   0.444   0.163  -0.169
    1UNL    C31   37   0.541   0.236  -0.072
    1UNL    C32   38   0.571   0.146   0.052
    1UNL    C33   39   0.544   0.218   0.185
    1UNL    C34   40   0.643   0.330   0.214
    1UNL    C35   41   0.493   0.012   0.037
    1UNL     N4   42   0.543  -0.053  -0.088
    1UNL    C36   43   0.545  -0.203  -0.100
    1UNL    C37   44   0.449  -0.273  -0.005
    1UNL    C38   45   0.507   0.027  -0.210
    1UNL    C39   46  -0.217  -0.172   0.081
    1UNL    C40   47  -0.346  -0.089   0.111
    1UNL    C41   48  -0.314   0.037   0.196
    1UNL    C42   49  -0.431   0.078   0.283
    1UNL     O4   50  -0.458   0.195   0.298
    1UNL     O5   51  -0.500  -0.025   0.341
    1UNL    C43   52  -0.602   0.026   0.420
    1UNL     H1   53  -0.739  -0.214   0.062
    1UNL     H2   54  -0.707  -0.042   0.074
    1UNL     H3   55  -0.619  -0.154   0.176
    1UNL     H4   56  -0.597  -0.136  -0.130
    1UNL     H5   57  -0.513  -0.254  -0.034
    1UNL     H6   58  -0.370  -0.063  -0.103
    1UNL     H7   59  -0.540   0.117  -0.099
    1UNL     H8   60  -0.544   0.111   0.076
    1UNL     H9   61  -0.466   0.351  -0.093
    1UNL    H10   62  -0.314   0.392  -0.012
    1UNL    H11   63  -0.459   0.355   0.084
    1UNL    H12   64  -0.266   0.244   0.172
    1UNL    H13   65  -0.070   0.227   0.050
    1UNL    H14   66  -0.068   0.067   0.116
    1UNL    H15   67  -0.141  -0.131  -0.334
    1UNL    H16   68  -0.094   0.067  -0.532
    1UNL    H17   69  -0.049   0.309  -0.556
    1UNL    H18   70  -0.038   0.454  -0.358
    1UNL    H19   71  -0.072   0.363  -0.133
    1UNL    H20   72  -0.247  -0.232  -0.122
    1UNL    H21   73  -0.168  -0.645  -0.050
    1UNL    H22   74  -0.311  -0.616  -0.151
    1UNL    H23   75  -0.150  -0.621  -0.227
    1UNL    H24   76   0.038  -0.597  -0.114
    1UNL    H25   77   0.262  -0.510  -0.072
    1UNL    H26   78   0.070  -0.011  -0.029
    1UNL    H27   79   0.050   0.279   0.266
    1UNL    H28   80   0.099   0.118   0.325
    1UNL    H29   81   0.215   0.253   0.329
    1UNL    H30   82   0.237   0.092  -0.161
    1UNL    H31   83   0.270   0.226  -0.053
    1UNL    H32   84   0.425   0.224  -0.258
    1UNL    H33   85   0.634   0.263  -0.125
    1UNL    H34   86   0.496   0.330  -0.040
    1UNL    H35   87   0.678   0.120   0.050
    1UNL    H36   88   0.545   0.145   0.267
    1UNL    H37   89   0.442   0.258   0.184
    1UNL    H38   90   0.641   0.406   0.136
    1UNL    H39   91   0.622   0.380   0.309
    1UNL    H40   92   0.745   0.292   0.219
    1UNL    H41   93   0.513  -0.053   0.123
    1UNL    H42   94   0.521  -0.229  -0.203
    1UNL    H43   95   0.648  -0.236  -0.083
    1UNL    H44   96   0.452  -0.382  -0.021
    1UNL    H45   97   0.481  -0.259   0.099
    1UNL    H46   98   0.597   0.042  -0.269
    1UNL    H47   99   0.437  -0.031  -0.270
    1UNL    H48  100  -0.230  -0.275   0.117
    1UNL    H49  101  -0.134  -0.134   0.142
    1UNL    H50  102  -0.410  -0.151   0.176
    1UNL    H51  103  -0.232   0.013   0.264
    1UNL    H52  104  -0.671   0.083   0.357
    1UNL    H53  105  -0.656  -0.057   0.467
    1UNL    H54  106  -0.559   0.091   0.496
   0.00000   0.00000   0.00000   0.00000   0.00000   0.00000   0.00000   0.00000   0.00000
Generated with MDTraj, t= 1.0
 106
    1UNL     C1    1  -0.632  -0.171   0.047
    1UNL     C2    2  -0.508  -0.168  -0.040
    1UNL     C3    3  -0.415  -0.058   0.001
    1UNL     C4    4  -0.476   0.084   0.015
    1UNL     N1    5  -0.371   0.192   0.021
    1UNL     C5    6  -0.385   0.322  -0.044
    1UNL     C6    7  -0.261   0.156   0.119
    1UNL     C7    8  -0.126   0.136   0.071
    1UNL     C8    9  -0.126   0.084  -0.073
    1UNL     C9   10  -0.145  -0.045  -0.126
    1UNL     N2   11  -0.146  -0.047  -0.263
    1UNL    C10   12  -0.111   0.073  -0.310
    1UNL    C11   13  -0.109   0.126  -0.440
    1UNL    C12   14  -0.105   0.260  -0.460
    1UNL    C13   15  -0.108   0.345  -0.349
    1UNL    C14   16  -0.103   0.300  -0.220
    1UNL    C15   17  -0.102   0.163  -0.195
    1UNL    C16   18  -0.167  -0.177  -0.051
    1UNL    C17   19  -0.044  -0.274  -0.069
    1UNL    C18   20  -0.059  -0.395  -0.133
    1UNL     O1   21  -0.189  -0.441  -0.173
    1UNL    C19   22  -0.228  -0.567  -0.127
    1UNL    C20   23   0.056  -0.481  -0.154
    1UNL    C21   24   0.179  -0.435  -0.124
    1UNL    C22   25   0.199  -0.317  -0.061
    1UNL    C23   26   0.309  -0.235  -0.012
    1UNL    C24   27   0.267  -0.111   0.025
    1UNL     N3   28   0.131  -0.111   0.015
    1UNL    C25   29   0.088  -0.235  -0.028
    1UNL    C26   30   0.337   0.026   0.032
    1UNL    C27   31   0.276   0.100   0.159
    1UNL     O2   32   0.342   0.089   0.259
    1UNL     O3   33   0.162   0.171   0.143
    1UNL    C28   34   0.140   0.245   0.259
    1UNL    C29   35   0.309   0.116  -0.087
    1UNL    C30   36   0.431   0.137  -0.171
    1UNL    C31   37   0.537   0.226  -0.084
    1UNL    C32   38   0.574   0.151   0.050
    1UNL    C33   39   0.559   0.230   0.180
    1UNL    C34   40   0.685   0.318   0.205
    1UNL    C35   41   0.494   0.009   0.043
    1UNL     N4   42   0.544  -0.060  -0.078
    1UNL    C36   43   0.553  -0.206  -0.074
    1UNL    C37   44   0.449  -0.283   0.009
    1UNL    C38   45   0.499   0.006  -0.204
    1UNL    C39   46  -0.214  -0.175   0.095
    1UNL    C40   47  -0.337  -0.094   0.135
    1UNL    C41   48  -0.308   0.049   0.213
    1UNL    C42   49  -0.434   0.091   0.289
    1UNL     O4   50  -0.455   0.210   0.318
    1UNL     O5   51  -0.519  -0.014   0.327
    1UNL    C43   52  -0.645   0.032   0.353
    1UNL     H1   53  -0.714  -0.242   0.019
    1UNL     H2   54  -0.670  -0.070   0.049
    1UNL     H3   55  -0.608  -0.210   0.146
    1UNL     H4   56  -0.522  -0.159  -0.147
    1UNL     H5   57  -0.457  -0.264  -0.022
    1UNL     H6   58  -0.346  -0.042  -0.078
    1UNL     H7   59  -0.537   0.099  -0.069
    1UNL     H8   60  -0.533   0.098   0.110
    1UNL     H9   61  -0.425   0.328  -0.144
    1UNL    H10   62  -0.291   0.390  -0.028
    1UNL    H11   63  -0.463   0.358   0.016
    1UNL    H12   64  -0.253   0.250   0.181
    1UNL    H13   65  -0.080   0.240   0.063
    1UNL    H14   66  -0.057   0.080   0.134
    1UNL    H15   67  -0.146  -0.133  -0.317
    1UNL    H16   68  -0.098   0.068  -0.526
    1UNL    H17   69  -0.075   0.294  -0.560
    1UNL    H18   70  -0.095   0.450  -0.373
    1UNL    H19   71  -0.084   0.377  -0.146
    1UNL    H20   72  -0.255  -0.227  -0.098
    1UNL    H21   73  -0.180  -0.651  -0.183
    1UNL    H22   74  -0.203  -0.580  -0.025
    1UNL    H23   75  -0.328  -0.579  -0.141
    1UNL    H24   76   0.050  -0.581  -0.188
    1UNL    H25   77   0.275  -0.493  -0.141
    1UNL    H26   78   0.084  -0.028   0.057
    1UNL    H27   79   0.209   0.330   0.267
    1UNL    H28   80   0.033   0.260   0.252
    1UNL    H29   81   0.168   0.186   0.345
    1UNL    H30   82   0.217   0.068  -0.144
    1UNL    H31   83   0.277   0.209  -0.046
    1UNL    H32   84   0.405   0.199  -0.262
    1UNL    H33   85   0.632   0.237  -0.137
    1UNL    H34   86   0.496   0.326  -0.073
    1UNL    H35   87   0.680   0.118   0.046
    1UNL    H36   88   0.539   0.155   0.255
    1UNL    H37   89   0.465   0.290   0.171
    1UNL    H38   90   0.713   0.325   0.313
    1UNL    H39   91   0.782   0.291   0.159
    1UNL    H40   92   0.677   0.415   0.173
    1UNL    H41   93   0.529  -0.048   0.128
    1UNL    H42   94   0.545  -0.243  -0.177
    1UNL    H43   95   0.653  -0.235  -0.043
    1UNL    H44   96   0.470  -0.387  -0.002
    1UNL    H45   97   0.481  -0.249   0.110
    1UNL    H46   98   0.586   0.035  -0.261
    1UNL    H47   99   0.437  -0.064  -0.259
    1UNL    H48  100  -0.225  -0.282   0.120
    1UNL    H49  101  -0.127  -0.143   0.154
    1UNL    H50  102  -0.394  -0.157   0.204
    1UNL    H51  103  -0.221   0.027   0.276
    1UNL    H52  104  -0.716   0.022   0.269
    1UNL    H53  105  -0.667  -0.015   0.452
    1UNL    H54  106  -0.635   0.139   0.377
   0.00000   0.00000   0.00000   0.00000   0.00000   0.00000   0.00000   0.00000   0.00000
Generated with MDTraj, t= 2.0
 106
    1UNL     C1    1  -0.637  -0.192   0.060
    1UNL     C2    2  -0.525  -0.177  -0.045
    1UNL     C3    3  -0.424  -0.068  -0.015
    1UNL     C4    4  -0.480   0.076  -0.028
    1UNL     N1    5  -0.374   0.177  -0.017
    1UNL     C5    6  -0.413   0.325  -0.014
    1UNL     C6    7  -0.280   0.157   0.105
    1UNL     C7    8  -0.138   0.147   0.063
    1UNL     C8    9  -0.124   0.080  -0.078
    1UNL     C9   10  -0.127  -0.052  -0.119
    1UNL     N2   11  -0.137  -0.057  -0.257
    1UNL    C10   12  -0.128   0.075  -0.299
    1UNL    C11   13  -0.144   0.127  -0.429
    1UNL    C12   14  -0.132   0.259  -0.446
    1UNL    C13   15  -0.112   0.344  -0.347
    1UNL    C14   16  -0.104   0.302  -0.218
    1UNL    C15   17  -0.118   0.162  -0.196
    1UNL    C16   18  -0.155  -0.176  -0.044
    1UNL    C17   19  -0.033  -0.264  -0.061
    1UNL    C18   20  -0.043  -0.383  -0.131
    1UNL     O1   21  -0.171  -0.415  -0.192
    1UNL    C19   22  -0.231  -0.520  -0.123
    1UNL    C20   23   0.072  -0.458  -0.155
    1UNL    C21   24   0.198  -0.420  -0.112
    1UNL    C22   25   0.203  -0.305  -0.039
    1UNL    C23   26   0.320  -0.242   0.012
    1UNL    C24   27   0.275  -0.112   0.043
    1UNL     N3   28   0.137  -0.103   0.035
    1UNL    C25   29   0.095  -0.220  -0.022
    1UNL    C26   30   0.344   0.020   0.047
    1UNL    C27   31   0.293   0.100   0.164
    1UNL     O2   32   0.340   0.091   0.274
    1UNL     O3   33   0.183   0.185   0.140
    1UNL    C28   34   0.131   0.250   0.264
    1UNL    C29   35   0.304   0.101  -0.078
    1UNL    C30   36   0.432   0.133  -0.167
    1UNL    C31   37   0.537   0.214  -0.082
    1UNL    C32   38   0.584   0.133   0.044
    1UNL    C33   39   0.592   0.206   0.173
    1UNL    C34   40   0.682   0.330   0.166
    1UNL    C35   41   0.504  -0.007   0.049
    1UNL     N4   42   0.540  -0.084  -0.080
    1UNL    C36   43   0.545  -0.229  -0.095
    1UNL    C37   44   0.463  -0.294   0.019
    1UNL    C38   45   0.510  -0.000  -0.204
    1UNL    C39   46  -0.198  -0.157   0.096
    1UNL    C40   47  -0.337  -0.083   0.113
    1UNL    C41   48  -0.323   0.048   0.203
    1UNL    C42   49  -0.446   0.086   0.277
    1UNL     O4   50  -0.442   0.186   0.349
    1UNL     O5   51  -0.550   0.004   0.277
    1UNL    C43   52  -0.645   0.042   0.374
    1UNL     H1   53  -0.715  -0.278   0.053
    1UNL     H2   54  -0.679  -0.093   0.052
    1UNL     H3   55  -0.597  -0.220   0.157
    1UNL     H4   56  -0.572  -0.164  -0.141
    1UNL     H5   57  -0.462  -0.267  -0.057
    1UNL     H6   58  -0.355  -0.069  -0.094
    1UNL     H7   59  -0.525   0.099  -0.119
    1UNL     H8   60  -0.543   0.093   0.063
    1UNL     H9   61  -0.447   0.363  -0.112
    1UNL    H10   62  -0.319   0.383   0.019
    1UNL    H11   63  -0.497   0.349   0.042
    1UNL    H12   64  -0.294   0.249   0.170
    1UNL    H13   65  -0.073   0.242   0.059
    1UNL    H14   66  -0.081   0.089   0.137
    1UNL    H15   67  -0.162  -0.134  -0.318
    1UNL    H16   68  -0.160   0.050  -0.512
    1UNL    H17   69  -0.137   0.299  -0.547
    1UNL    H18   70  -0.088   0.448  -0.368
    1UNL    H19   71  -0.098   0.366  -0.131
    1UNL    H20   72  -0.244  -0.228  -0.090
    1UNL    H21   73  -0.334  -0.543  -0.144
    1UNL    H22   74  -0.174  -0.606  -0.137
    1UNL    H23   75  -0.226  -0.498  -0.024
    1UNL    H24   76   0.075  -0.549  -0.219
    1UNL    H25   77   0.284  -0.463  -0.145
    1UNL    H26   78   0.093  -0.010   0.019
    1UNL    H27   79   0.191   0.215   0.348
    1UNL    H28   80   0.117   0.355   0.239
    1UNL    H29   81   0.032   0.212   0.281
    1UNL    H30   82   0.225   0.040  -0.146
    1UNL    H31   83   0.251   0.188  -0.048
    1UNL    H32   84   0.400   0.187  -0.265
    1UNL    H33   85   0.617   0.249  -0.151
    1UNL    H34   86   0.491   0.299  -0.030
    1UNL    H35   87   0.690   0.110   0.016
    1UNL    H36   88   0.629   0.145   0.252
    1UNL    H37   89   0.485   0.243   0.190
    1UNL    H38   90   0.774   0.297   0.110
    1UNL    H39   91   0.635   0.416   0.116
    1UNL    H40   92   0.705   0.360   0.261
    1UNL    H41   93   0.533  -0.057   0.143
    1UNL    H42   94   0.519  -0.269  -0.194
    1UNL    H43   95   0.652  -0.252  -0.085
    1UNL    H44   96   0.474  -0.394  -0.011
    1UNL    H45   97   0.508  -0.287   0.123
    1UNL    H46   98   0.599   0.008  -0.266
    1UNL    H47   99   0.433  -0.052  -0.259
    1UNL    H48  100  -0.217  -0.262   0.124
    1UNL    H49  101  -0.117  -0.118   0.159
    1UNL    H50  102  -0.402  -0.149   0.173
    1UNL    H51  103  -0.243   0.021   0.275
    1UNL    H52  104  -0.709   0.125   0.337
    1UNL    H53  105  -0.692  -0.057   0.401
    1UNL    H54  106  -0.599   0.070   0.471
   0.00000   0.00000   0.00000   0.00000   0.00000   0.00000   0.00000   0.00000   0.00000
Generated with MDTraj, t= 3.0
 106
    1UNL     C1    1  -0.660  -0.175   0.066
    1UNL     C2    2  -0.549  -0.169  -0.044
    1UNL     C3    3  -0.441  -0.068  -0.020
    1UNL     C4    4  -0.511   0.068  -0.014
    1UNL     N1    5  -0.395   0.172  -0.005
    1UNL     C5    6  -0.442   0.314  -0.017
    1UNL     C6    7  -0.287   0.154   0.096
    1UNL     C7    8  -0.145   0.139   0.047
    1UNL     C8    9  -0.137   0.087  -0.088
    1UNL     C9   10  -0.143  -0.046  -0.136
    1UNL     N2   11  -0.125  -0.042  -0.273
    1UNL    C10   12  -0.141   0.087  -0.323
    1UNL    C11   13  -0.141   0.141  -0.448
    1UNL    C12   14  -0.132   0.273  -0.462
    1UNL    C13   15  -0.123   0.353  -0.348
    1UNL    C14   16  -0.130   0.308  -0.222
    1UNL    C15   17  -0.139   0.173  -0.207
    1UNL    C16   18  -0.158  -0.171  -0.060
    1UNL    C17   19  -0.030  -0.262  -0.064
    1UNL    C18   20  -0.042  -0.386  -0.129
    1UNL     O1   21  -0.162  -0.430  -0.199
    1UNL    C19   22  -0.250  -0.510  -0.123
    1UNL    C20   23   0.066  -0.478  -0.121
    1UNL    C21   24   0.189  -0.441  -0.061
    1UNL    C22   25   0.203  -0.315  -0.000
    1UNL    C23   26   0.318  -0.235   0.026
    1UNL    C24   27   0.279  -0.101   0.048
    1UNL     N3   28   0.141  -0.102   0.030
    1UNL    C25   29   0.093  -0.229  -0.003
    1UNL    C26   30   0.362   0.025   0.049
    1UNL    C27   31   0.321   0.092   0.174
    1UNL     O2   32   0.380   0.065   0.273
    1UNL     O3   33   0.216   0.172   0.156
    1UNL    C28   34   0.183   0.234   0.281
    1UNL    C29   35   0.325   0.103  -0.085
    1UNL    C30   36   0.444   0.136  -0.163
    1UNL    C31   37   0.539   0.222  -0.080
    1UNL    C32   38   0.593   0.143   0.036
    1UNL    C33   39   0.591   0.226   0.166
    1UNL    C34   40   0.687   0.349   0.161
    1UNL    C35   41   0.519   0.001   0.046
    1UNL     N4   42   0.558  -0.079  -0.076
    1UNL    C36   43   0.553  -0.224  -0.088
    1UNL    C37   44   0.457  -0.294   0.019
    1UNL    C38   45   0.518  -0.002  -0.199
    1UNL    C39   46  -0.208  -0.160   0.078
    1UNL    C40   47  -0.348  -0.092   0.103
    1UNL    C41   48  -0.328   0.035   0.189
    1UNL    C42   49  -0.440   0.069   0.282
    1UNL     O4   50  -0.418   0.161   0.364
    1UNL     O5   51  -0.554  -0.001   0.263
    1UNL    C43   52  -0.653   0.052   0.359
    1UNL     H1   53  -0.739  -0.261   0.060
    1UNL     H2   54  -0.706  -0.079   0.057
    1UNL     H3   55  -0.622  -0.200   0.164
    1UNL     H4   56  -0.596  -0.135  -0.137
    1UNL     H5   57  -0.506  -0.267  -0.071
    1UNL     H6   58  -0.381  -0.067  -0.112
    1UNL     H7   59  -0.571   0.086  -0.099
    1UNL     H8   60  -0.571   0.089   0.079
    1UNL     H9   61  -0.553   0.305  -0.040
    1UNL    H10   62  -0.385   0.365  -0.090
    1UNL    H11   63  -0.448   0.372   0.072
    1UNL    H12   64  -0.300   0.247   0.161
    1UNL    H13   65  -0.110   0.252   0.042
    1UNL    H14   66  -0.070   0.098   0.120
    1UNL    H15   67  -0.116  -0.123  -0.333
    1UNL    H16   68  -0.163   0.081  -0.528
    1UNL    H17   69  -0.137   0.323  -0.556
    1UNL    H18   70  -0.137   0.457  -0.363
    1UNL    H19   71  -0.137   0.383  -0.146
    1UNL    H20   72  -0.242  -0.228  -0.112
    1UNL    H21   73  -0.282  -0.462  -0.035
    1UNL    H22   74  -0.331  -0.543  -0.177
    1UNL    H23   75  -0.199  -0.597  -0.096
    1UNL    H24   76   0.071  -0.570  -0.169
    1UNL    H25   77   0.272  -0.520  -0.072
    1UNL    H26   78   0.082  -0.019   0.027
    1UNL    H27   79   0.197   0.160   0.361
    1UNL    H28   80   0.253   0.320   0.295
    1UNL    H29   81   0.083   0.271   0.266
    1UNL    H30   82   0.250   0.044  -0.150
    1UNL    H31   83   0.271   0.195  -0.065
    1UNL    H32   84   0.412   0.201  -0.257
    1UNL    H33   85   0.633   0.261  -0.127
    1UNL    H34   86   0.473   0.299  -0.041
    1UNL    H35   87   0.698   0.117   0.002
    1UNL    H36   88   0.612   0.152   0.239
    1UNL    H37   89   0.484   0.267   0.181
    1UNL    H38   90   0.635   0.443   0.130
    1UNL    H39   91   0.757   0.365   0.244
    1UNL    H40   92   0.751   0.332   0.078
    1UNL    H41   93   0.539  -0.056   0.140
    1UNL    H42   94   0.529  -0.244  -0.192
    1UNL    H43   95   0.656  -0.261  -0.082
    1UNL    H44   96   0.449  -0.397   0.014
    1UNL    H45   97   0.505  -0.279   0.121
    1UNL    H46   98   0.608   0.037  -0.245
    1UNL    H47   99   0.468  -0.065  -0.269
    1UNL    H48  100  -0.208  -0.261   0.123
    1UNL    H49  101  -0.136  -0.097   0.133
    1UNL    H50  102  -0.410  -0.156   0.167
    1UNL    H51  103  -0.242   0.010   0.256
    1UNL    H52  104  -0.606   0.126   0.424
    1UNL    H53  105  -0.748   0.085   0.312
    1UNL    H54  106  -0.688  -0.032   0.421
   0.00000   0.00000   0.00000   0.00000   0.00000   0.00000   0.00000   0.00000   0.00000
Generated with MDTraj, t= 4.0
 106
    1UNL     C1    1  -0.656  -0.174   0.043
    1UNL     C2    2  -0.543  -0.190  -0.046
    1UNL     C3    3  -0.439  -0.074  -0.023
    1UNL     C4    4  -0.496   0.071  -0.010
    1UNL     N1    5  -0.392   0.175   0.001
    1UNL     C5    6  -0.443   0.308  -0.017
    1UNL     C6    7  -0.291   0.148   0.106
    1UNL     C7    8  -0.150   0.139   0.040
    1UNL     C8    9  -0.141   0.092  -0.102
    1UNL     C9   10  -0.147  -0.034  -0.141
    1UNL     N2   11  -0.136  -0.038  -0.281
    1UNL    C10   12  -0.123   0.091  -0.329
    1UNL    C11   13  -0.109   0.147  -0.459
    1UNL    C12   14  -0.126   0.280  -0.473
    1UNL    C13   15  -0.150   0.366  -0.369
    1UNL    C14   16  -0.157   0.322  -0.242
    1UNL    C15   17  -0.139   0.180  -0.221
    1UNL    C16   18  -0.162  -0.172  -0.076
    1UNL    C17   19  -0.038  -0.256  -0.084
    1UNL    C18   20  -0.050  -0.391  -0.111
    1UNL     O1   21  -0.171  -0.443  -0.164
    1UNL    C19   22  -0.250  -0.538  -0.095
    1UNL    C20   23   0.064  -0.484  -0.091
    1UNL    C21   24   0.176  -0.438  -0.030
    1UNL    C22   25   0.196  -0.300  -0.020
    1UNL    C23   26   0.313  -0.224   0.022
    1UNL    C24   27   0.280  -0.094   0.014
    1UNL     N3   28   0.140  -0.081  -0.013
    1UNL    C25   29   0.091  -0.210  -0.039
    1UNL    C26   30   0.359   0.034   0.044
    1UNL    C27   31   0.323   0.095   0.183
    1UNL     O2   32   0.382   0.052   0.278
    1UNL     O3   33   0.228   0.188   0.184
    1UNL    C28   34   0.201   0.228   0.322
    1UNL    C29   35   0.341   0.137  -0.077
    1UNL    C30   36   0.458   0.140  -0.177
    1UNL    C31   37   0.572   0.213  -0.100
    1UNL    C32   38   0.601   0.137   0.032
    1UNL    C33   39   0.586   0.220   0.160
    1UNL    C34   40   0.692   0.326   0.179
    1UNL    C35   41   0.509   0.004   0.043
    1UNL     N4   42   0.543  -0.074  -0.082
    1UNL    C36   43   0.546  -0.220  -0.069
    1UNL    C37   44   0.458  -0.278   0.038
    1UNL    C38   45   0.498  -0.010  -0.207
    1UNL    C39   46  -0.217  -0.170   0.069
    1UNL    C40   47  -0.349  -0.100   0.106
    1UNL    C41   48  -0.328   0.023   0.199
    1UNL    C42   49  -0.438   0.059   0.292
    1UNL     O4   50  -0.416   0.145   0.379
    1UNL     O5   51  -0.554  -0.008   0.269
    1UNL    C43   52  -0.649   0.055   0.357
    1UNL     H1   53  -0.737  -0.257   0.031
    1UNL     H2   54  -0.705  -0.081   0.026
    1UNL     H3   55  -0.624  -0.184   0.145
    1UNL     H4   56  -0.562  -0.201  -0.154
    1UNL     H5   57  -0.499  -0.289  -0.021
    1UNL     H6   58  -0.372  -0.086  -0.114
    1UNL     H7   59  -0.542   0.105  -0.100
    1UNL     H8   60  -0.570   0.081   0.072
    1UNL     H9   61  -0.437   0.348  -0.121
    1UNL    H10   62  -0.393   0.364   0.050
    1UNL    H11   63  -0.552   0.307   0.005
    1UNL    H12   64  -0.291   0.236   0.177
    1UNL    H13   65  -0.086   0.238   0.046
    1UNL    H14   66  -0.094   0.078   0.118
    1UNL    H15   67  -0.139  -0.123  -0.337
    1UNL    H16   68  -0.090   0.085  -0.551
    1UNL    H17   69  -0.134   0.312  -0.578
    1UNL    H18   70  -0.177   0.473  -0.388
    1UNL    H19   71  -0.178   0.379  -0.151
    1UNL    H20   72  -0.244  -0.229  -0.133
    1UNL    H21   73  -0.192  -0.591  -0.027
    1UNL    H22   74  -0.324  -0.489  -0.044
    1UNL    H23   75  -0.302  -0.603  -0.164
    1UNL    H24   76   0.027  -0.588  -0.108
    1UNL    H25   77   0.242  -0.510   0.015
    1UNL    H26   78   0.088   0.004  -0.030
    1UNL    H27   79   0.132   0.163   0.379
    1UNL    H28   80   0.299   0.215   0.378
    1UNL    H29   81   0.172   0.332   0.308
    1UNL    H30   82   0.248   0.124  -0.122
    1UNL    H31   83   0.339   0.241  -0.039
    1UNL    H32   84   0.433   0.195  -0.280
    1UNL    H33   85   0.659   0.221  -0.170
    1UNL    H34   86   0.542   0.307  -0.051
    1UNL    H35   87   0.712   0.110   0.026
    1UNL    H36   88   0.590   0.150   0.238
    1UNL    H37   89   0.475   0.254   0.161
    1UNL    H38   90   0.770   0.313   0.252
    1UNL    H39   91   0.736   0.358   0.083
    1UNL    H40   92   0.637   0.415   0.213
    1UNL    H41   93   0.538  -0.063   0.128
    1UNL    H42   94   0.500  -0.254  -0.161
    1UNL    H43   95   0.652  -0.252  -0.080
    1UNL    H44   96   0.462  -0.381   0.025
    1UNL    H45   97   0.485  -0.260   0.147
    1UNL    H46   98   0.568  -0.022  -0.290
    1UNL    H47   99   0.408  -0.061  -0.233
    1UNL    H48  100  -0.232  -0.276   0.097
    1UNL    H49  101  -0.131  -0.136   0.129
    1UNL    H50  102  -0.409  -0.169   0.167
    1UNL    H51  103  -0.239   0.004   0.264
    1UNL    H52  104  -0.673  -0.011   0.439
    1UNL    H53  105  -0.624   0.156   0.393
    1UNL    H54  106  -0.740   0.063   0.299
   0.00000   0.00000   0.00000   0.00000   0.00000   0.00000   0.00000   0.00000   0.00000
Generated with MDTraj, t= 5.0
 106
    1UNL     C1    1  -0.649  -0.197   0.039
    1UNL     C2    2  -0.529  -0.186  -0.063
    1UNL     C3    3  -0.438  -0.058  -0.039
    1UNL     C4    4  -0.505   0.082  -0.026
    1UNL     N1    5  -0.398   0.188  -0.011
    1UNL     C5    6  -0.451   0.328  -0.012
    1UNL     C6    7  -0.292   0.164   0.092
    1UNL     C7    8  -0.155   0.150   0.031
    1UNL     C8    9  -0.135   0.092  -0.098
    1UNL     C9   10  -0.146  -0.043  -0.148
    1UNL     N2   11  -0.133  -0.031  -0.283
    1UNL    C10   12  -0.120   0.095  -0.329
    1UNL    C11   13  -0.121   0.148  -0.457
    1UNL    C12   14  -0.130   0.282  -0.474
    1UNL    C13   15  -0.139   0.362  -0.361
    1UNL    C14   16  -0.135   0.315  -0.229
    1UNL    C15   17  -0.130   0.175  -0.213
    1UNL    C16   18  -0.163  -0.171  -0.076
    1UNL    C17   19  -0.036  -0.258  -0.082
    1UNL    C18   20  -0.052  -0.394  -0.089
    1UNL     O1   21  -0.187  -0.441  -0.094
    1UNL    C19   22  -0.203  -0.575  -0.045
    1UNL    C20   23   0.059  -0.481  -0.089
    1UNL    C21   24   0.184  -0.433  -0.060
    1UNL    C22   25   0.204  -0.291  -0.039
    1UNL    C23   26   0.313  -0.214   0.005
    1UNL    C24   27   0.277  -0.077   0.014
    1UNL     N3   28   0.137  -0.079  -0.019
    1UNL    C25   29   0.094  -0.206  -0.061
    1UNL    C26   30   0.356   0.049   0.050
    1UNL    C27   31   0.310   0.091   0.188
    1UNL     O2   32   0.325   0.014   0.280
    1UNL     O3   33   0.237   0.206   0.190
    1UNL    C28   34   0.180   0.216   0.327
    1UNL    C29   35   0.336   0.155  -0.070
    1UNL    C30   36   0.454   0.141  -0.171
    1UNL    C31   37   0.591   0.198  -0.102
    1UNL    C32   38   0.607   0.131   0.037
    1UNL    C33   39   0.590   0.225   0.164
    1UNL    C34   40   0.714   0.315   0.161
    1UNL    C35   41   0.508   0.006   0.048
    1UNL     N4   42   0.530  -0.075  -0.086
    1UNL    C36   43   0.533  -0.228  -0.077
    1UNL    C37   44   0.448  -0.276   0.029
    1UNL    C38   45   0.485  -0.011  -0.209
    1UNL    C39   46  -0.219  -0.170   0.072
    1UNL    C40   47  -0.350  -0.085   0.094
    1UNL    C41   48  -0.326   0.040   0.178
    1UNL    C42   49  -0.438   0.061   0.283
    1UNL     O4   50  -0.419   0.132   0.382
    1UNL     O5   51  -0.551  -0.007   0.263
    1UNL    C43   52  -0.631   0.022   0.370
    1UNL     H1   53  -0.724  -0.271  -0.008
    1UNL     H2   54  -0.713  -0.108   0.053
    1UNL     H3   55  -0.608  -0.218   0.135
    1UNL     H4   56  -0.569  -0.201  -0.165
    1UNL     H5   57  -0.460  -0.272  -0.057
    1UNL     H6   58  -0.354  -0.061  -0.120
    1UNL     H7   59  -0.571   0.104  -0.107
    1UNL     H8   60  -0.557   0.089   0.066
    1UNL     H9   61  -0.386   0.395  -0.064
    1UNL    H10   62  -0.462   0.367   0.089
    1UNL    H11   63  -0.546   0.327  -0.066
    1UNL    H12   64  -0.301   0.253   0.159
    1UNL    H13   65  -0.112   0.256   0.051
    1UNL    H14   66  -0.093   0.086   0.103
    1UNL    H15   67  -0.139  -0.113  -0.344
    1UNL    H16   68  -0.105   0.079  -0.537
    1UNL    H17   69  -0.132   0.338  -0.565
    1UNL    H18   70  -0.141   0.466  -0.372
    1UNL    H19   71  -0.132   0.378  -0.144
    1UNL    H20   72  -0.241  -0.232  -0.135
    1UNL    H21   73  -0.205  -0.643  -0.125
    1UNL    H22   74  -0.122  -0.600   0.014
    1UNL    H23   75  -0.292  -0.579   0.023
    1UNL    H24   76   0.042  -0.579  -0.124
    1UNL    H25   77   0.259  -0.505  -0.052
    1UNL    H26   78   0.070  -0.004  -0.010
    1UNL    H27   79   0.150   0.121   0.375
    1UNL    H28   80   0.270   0.242   0.394
    1UNL    H29   81   0.105   0.296   0.320
    1UNL    H30   82   0.253   0.127  -0.118
    1UNL    H31   83   0.332   0.263  -0.043
    1UNL    H32   84   0.423   0.204  -0.267
    1UNL    H33   85   0.687   0.174  -0.157
    1UNL    H34   86   0.580   0.305  -0.088
    1UNL    H35   87   0.716   0.094   0.042
    1UNL    H36   88   0.570   0.167   0.251
    1UNL    H37   89   0.502   0.296   0.151
    1UNL    H38   90   0.717   0.374   0.075
    1UNL    H39   91   0.694   0.384   0.247
    1UNL    H40   92   0.800   0.249   0.186
    1UNL    H41   93   0.541  -0.048   0.141
    1UNL    H42   94   0.505  -0.269  -0.173
    1UNL    H43   95   0.637  -0.261  -0.059
    1UNL    H44   96   0.433  -0.382   0.026
    1UNL    H45   97   0.493  -0.238   0.126
    1UNL    H46   98   0.565  -0.030  -0.279
    1UNL    H47   99   0.394  -0.056  -0.240
    1UNL    H48  100  -0.232  -0.273   0.107
    1UNL    H49  101  -0.139  -0.130   0.138
    1UNL    H50  102  -0.410  -0.144   0.165
    1UNL    H51  103  -0.234   0.020   0.239
    1UNL    H52  104  -0.721  -0.033   0.350
    1UNL    H53  105  -0.588  -0.011   0.465
    1UNL    H54  106  -0.662   0.125   0.375
   0.00000   0.00000   0.00000   0.00000   0.00000   0.00000   0.00000   0.00000   0.00000
Generated with MDTraj, t= 6.0
 106
    1UNL     C1    1  -0.646  -0.195   0.017
    1UNL     C2    2  -0.533  -0.161  -0.082
    1UNL     C3    3  -0.432  -0.052  -0.034
    1UNL     C4    4  -0.499   0.082  -0.018
    1UNL     N1    5  -0.403   0.187  -0.001
    1UNL     C5    6  -0.446   0.335  -0.020
    1UNL     C6    7  -0.291   0.167   0.103
    1UNL     C7    8  -0.152   0.156   0.040
    1UNL     C8    9  -0.146   0.099  -0.095
    1UNL     C9   10  -0.138  -0.029  -0.134
    1UNL     N2   11  -0.138  -0.037  -0.271
    1UNL    C10   12  -0.139   0.096  -0.318
    1UNL    C11   13  -0.137   0.149  -0.450
    1UNL    C12   14  -0.114   0.284  -0.473
    1UNL    C13   15  -0.100   0.369  -0.360
    1UNL    C14   16  -0.114   0.319  -0.236
    1UNL    C15   17  -0.142   0.186  -0.214
    1UNL    C16   18  -0.156  -0.160  -0.069
    1UNL    C17   19  -0.041  -0.258  -0.074
    1UNL    C18   20  -0.060  -0.399  -0.071
    1UNL     O1   21  -0.185  -0.453  -0.056
    1UNL    C19   22  -0.190  -0.588  -0.012
    1UNL    C20   23   0.051  -0.485  -0.080
    1UNL    C21   24   0.180  -0.441  -0.080
    1UNL    C22   25   0.199  -0.301  -0.059
    1UNL    C23   26   0.319  -0.231  -0.025
    1UNL    C24   27   0.273  -0.102   0.002
    1UNL     N3   28   0.140  -0.091  -0.009
    1UNL    C25   29   0.088  -0.217  -0.049
    1UNL    C26   30   0.349   0.021   0.035
    1UNL    C27   31   0.298   0.071   0.166
    1UNL     O2   32   0.325   0.005   0.264
    1UNL     O3   33   0.238   0.189   0.158
    1UNL    C28   34   0.197   0.225   0.287
    1UNL    C29   35   0.323   0.122  -0.081
    1UNL    C30   36   0.447   0.150  -0.165
    1UNL    C31   37   0.545   0.229  -0.076
    1UNL    C32   38   0.583   0.140   0.040
    1UNL    C33   39   0.600   0.212   0.183
    1UNL    C34   40   0.701   0.336   0.182
    1UNL    C35   41   0.501   0.005   0.043
    1UNL     N4   42   0.550  -0.059  -0.082
    1UNL    C36   43   0.560  -0.210  -0.075
    1UNL    C37   44   0.449  -0.282   0.013
    1UNL    C38   45   0.502   0.010  -0.204
    1UNL    C39   46  -0.211  -0.160   0.072
    1UNL    C40   47  -0.346  -0.089   0.091
    1UNL    C41   48  -0.320   0.044   0.180
    1UNL    C42   49  -0.438   0.063   0.278
    1UNL     O4   50  -0.435   0.149   0.363
    1UNL     O5   51  -0.552  -0.018   0.270
    1UNL    C43   52  -0.636   0.006   0.377
    1UNL     H1   53  -0.734  -0.225  -0.052
    1UNL     H2   54  -0.695  -0.112   0.077
    1UNL     H3   55  -0.610  -0.258   0.094
    1UNL     H4   56  -0.570  -0.112  -0.173
    1UNL     H5   57  -0.501  -0.257  -0.123
    1UNL     H6   58  -0.344  -0.034  -0.110
    1UNL     H7   59  -0.550   0.099  -0.113
    1UNL     H8   60  -0.560   0.084   0.068
    1UNL     H9   61  -0.410   0.389   0.061
    1UNL    H10   62  -0.557   0.365  -0.027
    1UNL    H11   63  -0.398   0.371  -0.108
    1UNL    H12   64  -0.288   0.251   0.174
    1UNL    H13   65  -0.095   0.257   0.032
    1UNL    H14   66  -0.091   0.092   0.115
    1UNL    H15   67  -0.111  -0.122  -0.323
    1UNL    H16   68  -0.156   0.090  -0.536
    1UNL    H17   69  -0.090   0.315  -0.575
    1UNL    H18   70  -0.084   0.480  -0.365
    1UNL    H19   71  -0.100   0.379  -0.146
    1UNL    H20   72  -0.233  -0.209  -0.140
    1UNL    H21   73  -0.159  -0.646  -0.097
    1UNL    H22   74  -0.122  -0.602   0.069
    1UNL    H23   75  -0.297  -0.606   0.027
    1UNL    H24   76   0.039  -0.593  -0.086
    1UNL    H25   77   0.269  -0.516  -0.080
    1UNL    H26   78   0.094  -0.002   0.010
    1UNL    H27   79   0.127   0.156   0.335
    1UNL    H28   80   0.290   0.220   0.353
    1UNL    H29   81   0.158   0.324   0.271
    1UNL    H30   82   0.254   0.084  -0.155
    1UNL    H31   83   0.291   0.216  -0.033
    1UNL    H32   84   0.425   0.216  -0.262
    1UNL    H33   85   0.629   0.267  -0.141
    1UNL    H34   86   0.501   0.316  -0.028
    1UNL    H35   87   0.693   0.115   0.009
    1UNL    H36   88   0.614   0.139   0.258
    1UNL    H37   89   0.495   0.249   0.199
    1UNL    H38   90   0.674   0.404   0.256
    1UNL    H39   91   0.805   0.301   0.208
    1UNL    H40   92   0.716   0.375   0.079
    1UNL    H41   93   0.538  -0.055   0.130
    1UNL    H42   94   0.542  -0.246  -0.174
    1UNL    H43   95   0.665  -0.236  -0.047
    1UNL    H44   96   0.455  -0.392  -0.004
    1UNL    H45   97   0.469  -0.254   0.120
    1UNL    H46   98   0.579   0.029  -0.279
    1UNL    H47   99   0.432  -0.064  -0.238
    1UNL    H48  100  -0.220  -0.262   0.112
    1UNL    H49  101  -0.139  -0.108   0.139
    1UNL    H50  102  -0.401  -0.151   0.164
    1UNL    H51  103  -0.229   0.035   0.245
    1UNL    H52  104  -0.718   0.069   0.341
    1UNL    H53  105  -0.673  -0.092   0.412
    1UNL    H54  106  -0.588   0.064   0.458
   0.00000   0.00000   0.00000   0.00000   0.00000   0.00000   0.00000   0.00000   0.00000
Generated with MDTraj, t= 7.0
 106
    1UNL     C1    1  -0.646  -0.171   0.014
    1UNL     C2    2  -0.530  -0.156  -0.080
    1UNL     C3    3  -0.424  -0.054  -0.023
    1UNL     C4    4  -0.480   0.084  -0.018
    1UNL     N1    5  -0.369   0.187  -0.003
    1UNL     C5    6  -0.418   0.329  -0.005
    1UNL     C6    7  -0.279   0.156   0.110
    1UNL     C7    8  -0.136   0.131   0.062
    1UNL     C8    9  -0.129   0.075  -0.083
    1UNL     C9   10  -0.135  -0.055  -0.136
    1UNL     N2   11  -0.119  -0.050  -0.273
    1UNL    C10   12  -0.113   0.081  -0.312
    1UNL    C11   13  -0.105   0.130  -0.440
    1UNL    C12   14  -0.103   0.266  -0.452
    1UNL    C13   15  -0.107   0.349  -0.335
    1UNL    C14   16  -0.110   0.297  -0.206
    1UNL    C15   17  -0.124   0.160  -0.194
    1UNL    C16   18  -0.161  -0.176  -0.057
    1UNL    C17   19  -0.043  -0.273  -0.060
    1UNL    C18   20  -0.067  -0.412  -0.076
    1UNL     O1   21  -0.192  -0.457  -0.106
    1UNL    C19   22  -0.245  -0.533   0.004
    1UNL    C20   23   0.046  -0.498  -0.071
    1UNL    C21   24   0.175  -0.450  -0.066
    1UNL    C22   25   0.200  -0.310  -0.048
    1UNL    C23   26   0.313  -0.223  -0.024
    1UNL    C24   27   0.273  -0.095  -0.015
    1UNL     N3   28   0.136  -0.097  -0.025
    1UNL    C25   29   0.086  -0.224  -0.043
    1UNL    C26   30   0.351   0.030   0.013
    1UNL    C27   31   0.303   0.095   0.147
    1UNL     O2   32   0.335   0.039   0.252
    1UNL     O3   33   0.220   0.205   0.148
    1UNL    C28   34   0.183   0.239   0.277
    1UNL    C29   35   0.330   0.134  -0.110
    1UNL    C30   36   0.466   0.169  -0.171
    1UNL    C31   37   0.562   0.233  -0.063
    1UNL    C32   38   0.592   0.140   0.057
    1UNL    C33   39   0.555   0.208   0.191
    1UNL    C34   40   0.636   0.329   0.221
    1UNL    C35   41   0.507   0.005   0.031
    1UNL     N4   42   0.556  -0.056  -0.101
    1UNL    C36   43   0.538  -0.200  -0.136
    1UNL    C37   44   0.452  -0.277  -0.032
    1UNL    C38   45   0.544   0.036  -0.219
    1UNL    C39   46  -0.217  -0.167   0.091
    1UNL    C40   47  -0.349  -0.094   0.111
    1UNL    C41   48  -0.329   0.033   0.194
    1UNL    C42   49  -0.448   0.072   0.282
    1UNL     O4   50  -0.467   0.179   0.328
    1UNL     O5   51  -0.544  -0.025   0.298
    1UNL    C43   52  -0.656   0.018   0.371
    1UNL     H1   53  -0.697  -0.271  -0.005
    1UNL     H2   54  -0.740  -0.106  -0.003
    1UNL     H3   55  -0.617  -0.151   0.115
    1UNL     H4   56  -0.571  -0.135  -0.178
    1UNL     H5   57  -0.483  -0.252  -0.099
    1UNL     H6   58  -0.337  -0.050  -0.093
    1UNL     H7   59  -0.537   0.100  -0.111
    1UNL     H8   60  -0.539   0.090   0.069
    1UNL     H9   61  -0.512   0.343   0.042
    1UNL    H10   62  -0.426   0.355  -0.118
    1UNL    H11   63  -0.345   0.396   0.024
    1UNL    H12   64  -0.286   0.243   0.175
    1UNL    H13   65  -0.073   0.228   0.077
    1UNL    H14   66  -0.079   0.041   0.110
    1UNL    H15   67  -0.141  -0.131  -0.333
    1UNL    H16   68  -0.096   0.053  -0.522
    1UNL    H17   69  -0.096   0.314  -0.547
    1UNL    H18   70  -0.093   0.452  -0.342
    1UNL    H19   71  -0.116   0.355  -0.116
    1UNL    H20   72  -0.241  -0.226  -0.125
    1UNL    H21   73  -0.159  -0.593   0.039
    1UNL    H22   74  -0.266  -0.459   0.085
    1UNL    H23   75  -0.342  -0.585  -0.019
    1UNL    H24   76   0.030  -0.606  -0.087
    1UNL    H25   77   0.259  -0.508  -0.078
    1UNL    H26   78   0.098  -0.001  -0.031
    1UNL    H27   79   0.106   0.170   0.307
    1UNL    H28   80   0.275   0.229   0.340
    1UNL    H29   81   0.141   0.335   0.283
    1UNL    H30   82   0.260   0.086  -0.191
    1UNL    H31   83   0.289   0.226  -0.073
    1UNL    H32   84   0.437   0.248  -0.256
    1UNL    H33   85   0.655   0.273  -0.111
    1UNL    H34   86   0.516   0.323  -0.023
    1UNL    H35   87   0.705   0.113   0.051
    1UNL    H36   88   0.566   0.129   0.264
    1UNL    H37   89   0.448   0.233   0.186
    1UNL    H38   90   0.689   0.308   0.309
    1UNL    H39   91   0.703   0.361   0.137
    1UNL    H40   92   0.578   0.423   0.231
    1UNL    H41   93   0.523  -0.070   0.113
    1UNL    H42   94   0.495  -0.198  -0.235
    1UNL    H43   95   0.640  -0.244  -0.139
    1UNL    H44   96   0.450  -0.385  -0.072
    1UNL    H45   97   0.507  -0.279   0.064
    1UNL    H46   98   0.647   0.054  -0.253
    1UNL    H47   99   0.488  -0.013  -0.296
    1UNL    H48  100  -0.247  -0.271   0.113
    1UNL    H49  101  -0.140  -0.150   0.171
    1UNL    H50  102  -0.423  -0.160   0.159
    1UNL    H51  103  -0.245   0.018   0.266
    1UNL    H52  104  -0.624   0.106   0.431
    1UNL    H53  105  -0.732   0.042   0.292
    1UNL    H54  106  -0.692  -0.059   0.442
   0.00000   0.00000   0.00000   0.00000   0.00000   0.00000   0.00000   0.00000   0.00000
Generated with MDTraj, t= 8.0
 106
    1UNL     C1    1  -0.667  -0.131   0.037
    1UNL     C2    2  -0.545  -0.155  -0.044
    1UNL     C3    3  -0.420  -0.056  -0.018
    1UNL     C4    4  -0.465   0.088  -0.025
    1UNL     N1    5  -0.353   0.189   0.000
    1UNL     C5    6  -0.398   0.326   0.019
    1UNL     C6    7  -0.280   0.143   0.120
    1UNL     C7    8  -0.131   0.119   0.076
    1UNL     C8    9  -0.113   0.068  -0.062
    1UNL     C9   10  -0.139  -0.060  -0.116
    1UNL     N2   11  -0.124  -0.062  -0.250
    1UNL    C10   12  -0.098   0.068  -0.291
    1UNL    C11   13  -0.078   0.125  -0.418
    1UNL    C12   14  -0.080   0.264  -0.438
    1UNL    C13   15  -0.089   0.353  -0.326
    1UNL    C14   16  -0.095   0.292  -0.200
    1UNL    C15   17  -0.096   0.151  -0.181
    1UNL    C16   18  -0.157  -0.192  -0.039
    1UNL    C17   19  -0.039  -0.288  -0.039
    1UNL    C18   20  -0.044  -0.417  -0.076
    1UNL     O1   21  -0.165  -0.478  -0.121
    1UNL    C19   22  -0.270  -0.499  -0.025
    1UNL    C20   23   0.072  -0.501  -0.076
    1UNL    C21   24   0.192  -0.449  -0.059
    1UNL    C22   25   0.206  -0.310  -0.029
    1UNL    C23   26   0.326  -0.225  -0.024
    1UNL    C24   27   0.277  -0.097  -0.023
    1UNL     N3   28   0.140  -0.101  -0.030
    1UNL    C25   29   0.090  -0.230  -0.024
    1UNL    C26   30   0.348   0.032  -0.002
    1UNL    C27   31   0.277   0.086   0.122
    1UNL     O2   32   0.294   0.031   0.230
    1UNL     O3   33   0.193   0.195   0.110
    1UNL    C28   34   0.135   0.241   0.230
    1UNL    C29   35   0.330   0.132  -0.119
    1UNL    C30   36   0.467   0.182  -0.175
    1UNL    C31   37   0.549   0.250  -0.064
    1UNL    C32   38   0.573   0.147   0.052
    1UNL    C33   39   0.539   0.192   0.187
    1UNL    C34   40   0.642   0.291   0.245
    1UNL    C35   41   0.508   0.012   0.018
    1UNL     N4   42   0.562  -0.041  -0.112
    1UNL    C36   43   0.534  -0.180  -0.156
    1UNL    C37   44   0.467  -0.270  -0.050
    1UNL    C38   45   0.551   0.060  -0.225
    1UNL    C39   46  -0.219  -0.179   0.105
    1UNL    C40   47  -0.348  -0.101   0.121
    1UNL    C41   48  -0.336   0.026   0.203
    1UNL    C42   49  -0.470   0.080   0.257
    1UNL     O4   50  -0.495   0.195   0.268
    1UNL     O5   51  -0.544  -0.021   0.311
    1UNL    C43   52  -0.662   0.035   0.375
    1UNL     H1   53  -0.757  -0.179  -0.010
    1UNL     H2   54  -0.701  -0.022   0.038
    1UNL     H3   55  -0.662  -0.161   0.143
    1UNL     H4   56  -0.581  -0.156  -0.146
    1UNL     H5   57  -0.525  -0.260  -0.035
    1UNL     H6   58  -0.349  -0.071  -0.093
    1UNL     H7   59  -0.499   0.108  -0.127
    1UNL     H8   60  -0.540   0.106   0.048
    1UNL     H9   61  -0.438   0.353   0.116
    1UNL    H10   62  -0.471   0.343  -0.063
    1UNL    H11   63  -0.316   0.385  -0.012
    1UNL    H12   64  -0.286   0.226   0.189
    1UNL    H13   65  -0.076   0.218   0.053
    1UNL    H14   66  -0.071   0.066   0.159
    1UNL    H15   67  -0.111  -0.148  -0.304
    1UNL    H16   68  -0.060   0.061  -0.496
    1UNL    H17   69  -0.072   0.305  -0.539
    1UNL    H18   70  -0.108   0.460  -0.346
    1UNL    H19   71  -0.105   0.353  -0.111
    1UNL    H20   72  -0.228  -0.253  -0.107
    1UNL    H21   73  -0.221  -0.511   0.079
    1UNL    H22   74  -0.343  -0.409  -0.022
    1UNL    H23   75  -0.338  -0.581  -0.053
    1UNL    H24   76   0.059  -0.599  -0.108
    1UNL    H25   77   0.279  -0.511  -0.077
    1UNL    H26   78   0.087  -0.012  -0.025
    1UNL    H27   79   0.110   0.147   0.276
    1UNL    H28   80   0.203   0.311   0.286
    1UNL    H29   81   0.041   0.287   0.225
    1UNL    H30   82   0.278   0.078  -0.212
    1UNL    H31   83   0.272   0.217  -0.091
    1UNL    H32   84   0.438   0.249  -0.268
    1UNL    H33   85   0.646   0.299  -0.096
    1UNL    H34   86   0.496   0.335  -0.019
    1UNL    H35   87   0.688   0.123   0.056
    1UNL    H36   88   0.535   0.109   0.255
    1UNL    H37   89   0.447   0.245   0.179
    1UNL    H38   90   0.742   0.266   0.211
    1UNL    H39   91   0.613   0.395   0.231
    1UNL    H40   92   0.648   0.285   0.355
    1UNL    H41   93   0.529  -0.064   0.098
    1UNL    H42   94   0.478  -0.172  -0.247
    1UNL    H43   95   0.641  -0.204  -0.178
    1UNL    H44   96   0.475  -0.384  -0.082
    1UNL    H45   97   0.533  -0.268   0.037
    1UNL    H46   98   0.654   0.086  -0.252
    1UNL    H47   99   0.503   0.015  -0.311
    1UNL    H48  100  -0.215  -0.277   0.155
    1UNL    H49  101  -0.144  -0.125   0.166
    1UNL    H50  102  -0.434  -0.154   0.164
    1UNL    H51  103  -0.273   0.020   0.297
    1UNL    H52  104  -0.694  -0.027   0.460
    1UNL    H53  105  -0.627   0.136   0.408
    1UNL    H54  106  -0.745   0.055   0.306
   0.00000   0.00000   0.00000   0.00000   0.00000   0.00000   0.00000   0.00000   0.00000
Generated with MDTraj, t= 9.0
 106
    1UNL     C1    1  -0.660  -0.115   0.065
    1UNL     C2    2  -0.556  -0.150  -0.034
    1UNL     C3    3  -0.437  -0.051  -0.023
    1UNL     C4    4  -0.477   0.096  -0.034
    1UNL     N1    5  -0.362   0.194  -0.002
    1UNL     C5    6  -0.393   0.343  -0.005
    1UNL     C6    7  -0.283   0.146   0.118
    1UNL     C7    8  -0.136   0.119   0.073
    1UNL     C8    9  -0.126   0.058  -0.065
    1UNL     C9   10  -0.148  -0.070  -0.109
    1UNL     N2   11  -0.121  -0.065  -0.244
    1UNL    C10   12  -0.094   0.063  -0.291
    1UNL    C11   13  -0.073   0.121  -0.418
    1UNL    C12   14  -0.045   0.255  -0.426
    1UNL    C13   15  -0.036   0.333  -0.304
    1UNL    C14   16  -0.060   0.281  -0.180
    1UNL    C15   17  -0.089   0.141  -0.171
    1UNL    C16   18  -0.161  -0.206  -0.043
    1UNL    C17   19  -0.039  -0.296  -0.044
    1UNL    C18   20  -0.042  -0.428  -0.085
    1UNL     O1   21  -0.168  -0.488  -0.118
    1UNL    C19   22  -0.262  -0.521  -0.019
    1UNL    C20   23   0.070  -0.504  -0.101
    1UNL    C21   24   0.199  -0.454  -0.071
    1UNL    C22   25   0.208  -0.317  -0.047
    1UNL    C23   26   0.320  -0.228  -0.045
    1UNL    C24   27   0.271  -0.102  -0.017
    1UNL     N3   28   0.130  -0.109  -0.014
    1UNL    C25   29   0.089  -0.242  -0.025
    1UNL    C26   30   0.336   0.027  -0.009
    1UNL    C27   31   0.275   0.099   0.112
    1UNL     O2   32   0.305   0.055   0.221
    1UNL     O3   33   0.189   0.198   0.092
    1UNL    C28   34   0.147   0.260   0.206
    1UNL    C29   35   0.317   0.114  -0.134
    1UNL    C30   36   0.447   0.192  -0.167
    1UNL    C31   37   0.494   0.264  -0.043
    1UNL    C32   38   0.553   0.156   0.054
    1UNL    C33   39   0.556   0.188   0.203
    1UNL    C34   40   0.675   0.279   0.241
    1UNL    C35   41   0.492   0.019   0.016
    1UNL     N4   42   0.564  -0.027  -0.105
    1UNL    C36   43   0.551  -0.170  -0.144
    1UNL    C37   44   0.462  -0.262  -0.057
    1UNL    C38   45   0.550   0.087  -0.212
    1UNL    C39   46  -0.225  -0.170   0.099
    1UNL    C40   47  -0.358  -0.093   0.112
    1UNL    C41   48  -0.341   0.030   0.199
    1UNL    C42   49  -0.470   0.074   0.265
    1UNL     O4   50  -0.504   0.185   0.247
    1UNL     O5   51  -0.536  -0.019   0.342
    1UNL    C43   52  -0.660   0.036   0.382
    1UNL     H1   53  -0.742  -0.191   0.063
    1UNL     H2   54  -0.714  -0.022   0.032
    1UNL     H3   55  -0.630  -0.110   0.178
    1UNL     H4   56  -0.602  -0.150  -0.131
    1UNL     H5   57  -0.531  -0.252  -0.019
    1UNL     H6   58  -0.369  -0.057  -0.101
    1UNL     H7   59  -0.500   0.122  -0.137
    1UNL     H8   60  -0.554   0.132   0.031
    1UNL     H9   61  -0.488   0.359   0.046
    1UNL    H10   62  -0.393   0.382  -0.099
    1UNL    H11   63  -0.312   0.397   0.046
    1UNL    H12   64  -0.293   0.236   0.178
    1UNL    H13   65  -0.090   0.223   0.063
    1UNL    H14   66  -0.067   0.053   0.135
    1UNL    H15   67  -0.142  -0.143  -0.306
    1UNL    H16   68  -0.075   0.059  -0.511
    1UNL    H17   69  -0.042   0.293  -0.527
    1UNL    H18   70  -0.035   0.440  -0.312
    1UNL    H19   71  -0.060   0.341  -0.088
    1UNL    H20   72  -0.242  -0.259  -0.105
    1UNL    H21   73  -0.228  -0.468   0.079
    1UNL    H22   74  -0.370  -0.492  -0.050
    1UNL    H23   75  -0.265  -0.631  -0.006
    1UNL    H24   76   0.061  -0.612  -0.123
    1UNL    H25   77   0.292  -0.512  -0.094
    1UNL    H26   78   0.066  -0.031  -0.022
    1UNL    H27   79   0.055   0.207   0.228
    1UNL    H28   80   0.222   0.257   0.293
    1UNL    H29   81   0.126   0.363   0.202
    1UNL    H30   82   0.296   0.044  -0.225
    1UNL    H31   83   0.236   0.183  -0.120
    1UNL    H32   84   0.429   0.265  -0.256
    1UNL    H33   85   0.567   0.347  -0.058
    1UNL    H34   86   0.415   0.317   0.013
    1UNL    H35   87   0.666   0.138   0.031
    1UNL    H36   88   0.561   0.099   0.263
    1UNL    H37   89   0.465   0.232   0.227
    1UNL    H38   90   0.766   0.215   0.242
    1UNL    H39   91   0.699   0.361   0.180
    1UNL    H40   92   0.688   0.316   0.346
    1UNL    H41   93   0.515  -0.054   0.099
    1UNL    H42   94   0.511  -0.154  -0.241
    1UNL    H43   95   0.658  -0.199  -0.159
    1UNL    H44   96   0.478  -0.372  -0.098
    1UNL    H45   97   0.498  -0.277   0.045
    1UNL    H46   98   0.638   0.146  -0.246
    1UNL    H47   99   0.517   0.029  -0.299
    1UNL    H48  100  -0.228  -0.263   0.161
    1UNL    H49  101  -0.143  -0.122   0.153
    1UNL    H50  102  -0.433  -0.154   0.163
    1UNL    H51  103  -0.274  -0.018   0.276
    1UNL    H52  104  -0.735   0.021   0.307
    1UNL    H53  105  -0.684  -0.026   0.471
    1UNL    H54  106  -0.655   0.137   0.421
   0.00000   0.00000   0.00000   0.00000   0.00000   0.00000   0.00000   0.00000   0.00000
Generated with MDTraj, t= 10.0
 106
    1UNL     C1    1  -0.676  -0.152   0.053
    1UNL     C2    2  -0.567  -0.156  -0.055
    1UNL     C3    3  -0.441  -0.069  -0.027
    1UNL     C4    4  -0.476   0.078  -0.032
    1UNL     N1    5  -0.354   0.161  -0.010
    1UNL     C5    6  -0.372   0.312  -0.033
    1UNL     C6    7  -0.273   0.132   0.112
    1UNL     C7    8  -0.126   0.102   0.066
    1UNL     C8    9  -0.115   0.060  -0.071
    1UNL     C9   10  -0.146  -0.067  -0.120
    1UNL     N2   11  -0.123  -0.062  -0.252
    1UNL    C10   12  -0.078   0.067  -0.296
    1UNL    C11   13  -0.049   0.110  -0.422
    1UNL    C12   14  -0.000   0.239  -0.427
    1UNL    C13   15   0.010   0.324  -0.312
    1UNL    C14   16  -0.037   0.284  -0.189
    1UNL    C15   17  -0.082   0.148  -0.180
    1UNL    C16   18  -0.177  -0.189  -0.049
    1UNL    C17   19  -0.052  -0.275  -0.063
    1UNL    C18   20  -0.065  -0.410  -0.097
    1UNL     O1   21  -0.196  -0.458  -0.089
    1UNL    C19   22  -0.217  -0.560   0.004
    1UNL    C20   23   0.047  -0.492  -0.117
    1UNL    C21   24   0.173  -0.437  -0.102
    1UNL    C22   25   0.190  -0.308  -0.061
    1UNL    C23   26   0.304  -0.220  -0.035
    1UNL    C24   27   0.255  -0.100   0.006
    1UNL     N3   28   0.114  -0.104   0.005
    1UNL    C25   29   0.076  -0.228  -0.047
    1UNL    C26   30   0.335   0.037   0.020
    1UNL    C27   31   0.277   0.123   0.132
    1UNL     O2   32   0.294   0.090   0.246
    1UNL     O3   33   0.201   0.236   0.107
    1UNL    C28   34   0.163   0.308   0.220
    1UNL    C29   35   0.307   0.125  -0.115
    1UNL    C30   36   0.446   0.179  -0.167
    1UNL    C31   37   0.525   0.254  -0.049
    1UNL    C32   38   0.573   0.147   0.056
    1UNL    C33   39   0.562   0.195   0.202
    1UNL    C34   40   0.662   0.299   0.242
    1UNL    C35   41   0.487   0.018   0.029
    1UNL     N4   42   0.542  -0.039  -0.102
    1UNL    C36   43   0.487  -0.165  -0.169
    1UNL    C37   44   0.433  -0.263  -0.070
    1UNL    C38   45   0.530   0.065  -0.217
    1UNL    C39   46  -0.239  -0.185   0.091
    1UNL    C40   47  -0.365  -0.099   0.112
    1UNL    C41   48  -0.333   0.025   0.194
    1UNL    C42   49  -0.467   0.070   0.269
    1UNL     O4   50  -0.498   0.184   0.244
    1UNL     O5   51  -0.523  -0.027   0.352
    1UNL    C43   52  -0.621   0.024   0.433
    1UNL     H1   53  -0.771  -0.189   0.009
    1UNL     H2   54  -0.699  -0.045   0.077
    1UNL     H3   55  -0.659  -0.221   0.146
    1UNL     H4   56  -0.614  -0.122  -0.146
    1UNL     H5   57  -0.531  -0.255  -0.068
    1UNL     H6   58  -0.375  -0.074  -0.110
    1UNL     H7   59  -0.515   0.119  -0.125
    1UNL     H8   60  -0.534   0.108   0.054
    1UNL     H9   61  -0.402   0.353   0.064
    1UNL    H10   62  -0.441   0.336  -0.102
    1UNL    H11   63  -0.277   0.356  -0.066
    1UNL    H12   64  -0.265   0.226   0.170
    1UNL    H13   65  -0.040   0.176   0.077
    1UNL    H14   66  -0.098   0.021   0.135
    1UNL    H15   67  -0.121  -0.139  -0.319
    1UNL    H16   68  -0.060   0.045  -0.505
    1UNL    H17   69   0.026   0.290  -0.520
    1UNL    H18   70   0.064   0.417  -0.325
    1UNL    H19   71  -0.038   0.352  -0.108
    1UNL    H20   72  -0.250  -0.242  -0.121
    1UNL    H21   73  -0.124  -0.563   0.071
    1UNL    H22   74  -0.313  -0.542   0.070
    1UNL    H23   75  -0.226  -0.658  -0.052
    1UNL    H24   76   0.038  -0.591  -0.156
    1UNL    H25   77   0.249  -0.501  -0.130
    1UNL    H26   78   0.065  -0.015   0.004
    1UNL    H27   79   0.154   0.238   0.306
    1UNL    H28   80   0.243   0.389   0.239
    1UNL    H29   81   0.071   0.363   0.218
    1UNL    H30   82   0.260   0.056  -0.182
    1UNL    H31   83   0.240   0.212  -0.099
    1UNL    H32   84   0.414   0.247  -0.254
    1UNL    H33   85   0.615   0.312  -0.071
    1UNL    H34   86   0.464   0.337  -0.004
    1UNL    H35   87   0.682   0.110   0.038
    1UNL    H36   88   0.566   0.114   0.274
    1UNL    H37   89   0.470   0.240   0.212
    1UNL    H38   90   0.761   0.259   0.211
    1UNL    H39   91   0.657   0.395   0.203
    1UNL    H40   92   0.686   0.295   0.351
    1UNL    H41   93   0.506  -0.059   0.110
    1UNL    H42   94   0.409  -0.133  -0.234
    1UNL    H43   95   0.573  -0.205  -0.231
    1UNL    H44   96   0.424  -0.369  -0.118
    1UNL    H45   97   0.502  -0.277   0.015
    1UNL    H46   98   0.635   0.090  -0.244
    1UNL    H47   99   0.489   0.034  -0.315
    1UNL    H48  100  -0.270  -0.290   0.116
    1UNL    H49  101  -0.173  -0.169   0.176
    1UNL    H50  102  -0.437  -0.160   0.167
    1UNL    H51  103  -0.255  -0.020   0.260
    1UNL    H52  104  -0.619   0.130   0.442
    1UNL    H53  105  -0.719  -0.009   0.397
    1UNL    H54  106  -0.607  -0.027   0.527
   0.00000   0.00000   0.00000   0.00000   0.00000   0.00000   0.00000   0.00000   0.00000
Generated with MDTraj, t= 11.0
 106
    1UNL     C1    1  -0.692  -0.164   0.047
    1UNL     C2    2  -0.579  -0.160  -0.060
    1UNL     C3    3  -0.466  -0.060  -0.016
    1UNL     C4    4  -0.510   0.090  -0.018
    1UNL     N1    5  -0.384   0.167  -0.019
    1UNL     C5    6  -0.400   0.300  -0.078
    1UNL     C6    7  -0.294   0.149   0.103
    1UNL     C7    8  -0.145   0.127   0.060
    1UNL     C8    9  -0.126   0.081  -0.082
    1UNL     C9   10  -0.156  -0.047  -0.126
    1UNL     N2   11  -0.123  -0.047  -0.260
    1UNL    C10   12  -0.073   0.078  -0.300
    1UNL    C11   13  -0.017   0.126  -0.422
    1UNL    C12   14   0.048   0.250  -0.423
    1UNL    C13   15   0.055   0.323  -0.311
    1UNL    C14   16   0.001   0.279  -0.196
    1UNL    C15   17  -0.069   0.155  -0.188
    1UNL    C16   18  -0.183  -0.180  -0.066
    1UNL    C17   19  -0.063  -0.276  -0.063
    1UNL    C18   20  -0.072  -0.412  -0.074
    1UNL     O1   21  -0.193  -0.474  -0.067
    1UNL    C19   22  -0.191  -0.609  -0.030
    1UNL    C20   23   0.044  -0.492  -0.078
    1UNL    C21   24   0.170  -0.438  -0.071
    1UNL    C22   25   0.177  -0.296  -0.053
    1UNL    C23   26   0.292  -0.214  -0.033
    1UNL    C24   27   0.247  -0.088  -0.008
    1UNL     N3   28   0.102  -0.092  -0.009
    1UNL    C25   29   0.063  -0.217  -0.040
    1UNL    C26   30   0.328   0.040   0.001
    1UNL    C27   31   0.277   0.108   0.122
    1UNL     O2   32   0.290   0.053   0.228
    1UNL     O3   33   0.230   0.235   0.110
    1UNL    C28   34   0.186   0.280   0.231
    1UNL    C29   35   0.300   0.130  -0.125
    1UNL    C30   36   0.440   0.186  -0.170
    1UNL    C31   37   0.507   0.254  -0.044
    1UNL    C32   38   0.562   0.139   0.051
    1UNL    C33   39   0.580   0.178   0.199
    1UNL    C34   40   0.643   0.318   0.227
    1UNL    C35   41   0.488   0.014   0.020
    1UNL     N4   42   0.539  -0.032  -0.106
    1UNL    C36   43   0.514  -0.171  -0.148
    1UNL    C37   44   0.437  -0.256  -0.040
    1UNL    C38   45   0.521   0.071  -0.218
    1UNL    C39   46  -0.252  -0.193   0.068
    1UNL    C40   47  -0.371  -0.095   0.106
    1UNL    C41   48  -0.339   0.034   0.187
    1UNL    C42   49  -0.451   0.066   0.288
    1UNL     O4   50  -0.492   0.180   0.279
    1UNL     O5   51  -0.494  -0.035   0.374
    1UNL    C43   52  -0.600   0.004   0.458
    1UNL     H1   53  -0.758  -0.257   0.048
    1UNL     H2   54  -0.763  -0.079   0.030
    1UNL     H3   55  -0.657  -0.169   0.156
    1UNL     H4   56  -0.610  -0.131  -0.159
    1UNL     H5   57  -0.530  -0.254  -0.068
    1UNL     H6   58  -0.405  -0.062  -0.108
    1UNL     H7   59  -0.563   0.116  -0.108
    1UNL     H8   60  -0.563   0.119   0.073
    1UNL     H9   61  -0.478   0.348  -0.027
    1UNL    H10   62  -0.429   0.291  -0.186
    1UNL    H11   63  -0.310   0.357  -0.077
    1UNL    H12   64  -0.300   0.249   0.154
    1UNL    H13   65  -0.096   0.227   0.075
    1UNL    H14   66  -0.090   0.060   0.126
    1UNL    H15   67  -0.125  -0.133  -0.313
    1UNL    H16   68  -0.031   0.078  -0.516
    1UNL    H17   69   0.107   0.267  -0.510
    1UNL    H18   70   0.110   0.416  -0.313
    1UNL    H19   71   0.020   0.330  -0.100
    1UNL    H20   72  -0.253  -0.237  -0.137
    1UNL    H21   73  -0.127  -0.615   0.063
    1UNL    H22   74  -0.298  -0.647  -0.005
    1UNL    H23   75  -0.137  -0.674  -0.108
    1UNL    H24   76   0.037  -0.600  -0.085
    1UNL    H25   77   0.264  -0.502  -0.070
    1UNL    H26   78   0.045  -0.008  -0.015
    1UNL    H27   79   0.273   0.267   0.300
    1UNL    H28   80   0.183   0.396   0.221
    1UNL    H29   81   0.097   0.237   0.274
    1UNL    H30   82   0.256   0.070  -0.193
    1UNL    H31   83   0.227   0.210  -0.093
    1UNL    H32   84   0.429   0.257  -0.258
    1UNL    H33   85   0.581   0.323  -0.084
    1UNL    H34   86   0.446   0.327   0.018
    1UNL    H35   87   0.670   0.125   0.012
    1UNL    H36   88   0.630   0.103   0.258
    1UNL    H37   89   0.483   0.184   0.240
    1UNL    H38   90   0.753   0.302   0.235
    1UNL    H39   91   0.629   0.378   0.143
    1UNL    H40   92   0.624   0.354   0.330
    1UNL    H41   93   0.518  -0.065   0.096
    1UNL    H42   94   0.462  -0.167  -0.240
    1UNL    H43   95   0.615  -0.219  -0.161
    1UNL    H44   96   0.442  -0.364  -0.073
    1UNL    H45   97   0.481  -0.242   0.063
    1UNL    H46   98   0.618   0.101  -0.262
    1UNL    H47   99   0.475   0.024  -0.309
    1UNL    H48  100  -0.283  -0.298   0.098
    1UNL    H49  101  -0.172  -0.169   0.137
    1UNL    H50  102  -0.443  -0.146   0.170
    1UNL    H51  103  -0.257   0.007   0.259
    1UNL    H52  104  -0.570   0.025   0.559
    1UNL    H53  105  -0.666   0.088   0.424
    1UNL    H54  106  -0.664  -0.083   0.458
   0.00000   0.00000   0.00000   0.00000   0.00000   0.00000   0.00000   0.00000   0.00000
Generated with MDTraj, t= 12.0
 106
    1UNL     C1    1  -0.693  -0.139   0.073
    1UNL     C2    2  -0.583  -0.161  -0.031
    1UNL     C3    3  -0.458  -0.072  -0.027
    1UNL     C4    4  -0.506   0.079  -0.041
    1UNL     N1    5  -0.396   0.176  -0.037
    1UNL     C5    6  -0.422   0.312  -0.081
    1UNL     C6    7  -0.318   0.154   0.090
    1UNL     C7    8  -0.174   0.160   0.049
    1UNL     C8    9  -0.142   0.081  -0.081
    1UNL     C9   10  -0.153  -0.049  -0.134
    1UNL     N2   11  -0.112  -0.050  -0.264
    1UNL    C10   12  -0.054   0.074  -0.296
    1UNL    C11   13   0.028   0.110  -0.398
    1UNL    C12   14   0.077   0.233  -0.399
    1UNL    C13   15   0.049   0.317  -0.291
    1UNL    C14   16  -0.021   0.285  -0.180
    1UNL    C15   17  -0.081   0.158  -0.181
    1UNL    C16   18  -0.178  -0.178  -0.059
    1UNL    C17   19  -0.056  -0.270  -0.063
    1UNL    C18   20  -0.073  -0.407  -0.049
    1UNL     O1   21  -0.207  -0.444  -0.058
    1UNL    C19   22  -0.223  -0.580  -0.100
    1UNL    C20   23   0.041  -0.492  -0.034
    1UNL    C21   24   0.170  -0.443  -0.022
    1UNL    C22   25   0.191  -0.304  -0.041
    1UNL    C23   26   0.310  -0.218  -0.036
    1UNL    C24   27   0.259  -0.088  -0.038
    1UNL     N3   28   0.124  -0.092  -0.059
    1UNL    C25   29   0.076  -0.224  -0.055
    1UNL    C26   30   0.331   0.039  -0.010
    1UNL    C27   31   0.271   0.091   0.130
    1UNL     O2   32   0.260   0.014   0.225
    1UNL     O3   33   0.232   0.225   0.125
    1UNL    C28   34   0.183   0.260   0.255
    1UNL    C29   35   0.309   0.142  -0.124
    1UNL    C30   36   0.445   0.183  -0.180
    1UNL    C31   37   0.531   0.249  -0.075
    1UNL    C32   38   0.556   0.151   0.041
    1UNL    C33   39   0.529   0.218   0.184
    1UNL    C34   40   0.634   0.322   0.213
    1UNL    C35   41   0.486   0.018   0.014
    1UNL     N4   42   0.546  -0.038  -0.104
    1UNL    C36   43   0.536  -0.179  -0.142
    1UNL    C37   44   0.453  -0.257  -0.040
    1UNL    C38   45   0.519   0.058  -0.229
    1UNL    C39   46  -0.233  -0.162   0.082
    1UNL    C40   47  -0.375  -0.101   0.103
    1UNL    C41   48  -0.349   0.029   0.181
    1UNL    C42   49  -0.459   0.058   0.286
    1UNL     O4   50  -0.502   0.173   0.293
    1UNL     O5   51  -0.486  -0.050   0.363
    1UNL    C43   52  -0.567  -0.012   0.477
    1UNL     H1   53  -0.772  -0.224   0.058
    1UNL     H2   54  -0.746  -0.043   0.044
    1UNL     H3   55  -0.665  -0.157   0.180
    1UNL     H4   56  -0.621  -0.153  -0.132
    1UNL     H5   57  -0.542  -0.258  -0.015
    1UNL     H6   58  -0.402  -0.114  -0.115
    1UNL     H7   59  -0.555   0.083  -0.136
    1UNL     H8   60  -0.577   0.102   0.040
    1UNL     H9   61  -0.487   0.360  -0.015
    1UNL    H10   62  -0.477   0.310  -0.184
    1UNL    H11   63  -0.335   0.368  -0.099
    1UNL    H12   64  -0.341   0.241   0.157
    1UNL    H13   65  -0.148   0.264   0.035
    1UNL    H14   66  -0.112   0.133   0.134
    1UNL    H15   67  -0.097  -0.135  -0.316
    1UNL    H16   68   0.051   0.038  -0.480
    1UNL    H17   69   0.137   0.271  -0.481
    1UNL    H18   70   0.098   0.412  -0.292
    1UNL    H19   71  -0.018   0.358  -0.103
    1UNL    H20   72  -0.260  -0.243  -0.106
    1UNL    H21   73  -0.187  -0.645  -0.018
    1UNL    H22   74  -0.330  -0.600  -0.123
    1UNL    H23   75  -0.152  -0.612  -0.187
    1UNL    H24   76   0.024  -0.596  -0.007
    1UNL    H25   77   0.241  -0.517  -0.007
    1UNL    H26   78   0.069  -0.009  -0.072
    1UNL    H27   79   0.242   0.351   0.277
    1UNL    H28   80   0.078   0.302   0.267
    1UNL    H29   81   0.200   0.185   0.327
    1UNL    H30   82   0.253   0.095  -0.198
    1UNL    H31   83   0.251   0.227  -0.081
    1UNL    H32   84   0.429   0.262  -0.260
    1UNL    H33   85   0.630   0.282  -0.108
    1UNL    H34   86   0.483   0.351  -0.058
    1UNL    H35   87   0.669   0.129   0.033
    1UNL    H36   88   0.530   0.136   0.252
    1UNL    H37   89   0.426   0.258   0.196
    1UNL    H38   90   0.727   0.315   0.151
    1UNL    H39   91   0.597   0.419   0.190
    1UNL    H40   92   0.675   0.305   0.313
    1UNL    H41   93   0.499  -0.054   0.100
    1UNL    H42   94   0.490  -0.189  -0.235
    1UNL    H43   95   0.643  -0.215  -0.146
    1UNL    H44   96   0.455  -0.363  -0.073
    1UNL    H45   97   0.496  -0.241   0.066
    1UNL    H46   98   0.615   0.091  -0.275
    1UNL    H47   99   0.476   0.007  -0.320
    1UNL    H48  100  -0.236  -0.273   0.103
    1UNL    H49  101  -0.159  -0.133   0.155
    1UNL    H50  102  -0.446  -0.156   0.166
    1UNL    H51  103  -0.271   0.022   0.260
    1UNL    H52  104  -0.511  -0.008   0.571
    1UNL    H53  105  -0.610   0.093   0.476
    1UNL    H54  106  -0.657  -0.072   0.494
   0.00000   0.00000   0.00000   0.00000   0.00000   0.00000   0.00000   0.00000   0.00000
Generated with MDTraj, t= 13.0
 106
    1UNL     C1    1  -0.701  -0.157   0.102
    1UNL     C2    2  -0.593  -0.185  -0.004
    1UNL     C3    3  -0.470  -0.089  -0.004
    1UNL     C4    4  -0.508   0.063  -0.027
    1UNL     N1    5  -0.395   0.162  -0.031
    1UNL     C5    6  -0.436   0.301  -0.051
    1UNL     C6    7  -0.306   0.146   0.092
    1UNL     C7    8  -0.158   0.145   0.052
    1UNL     C8    9  -0.127   0.096  -0.087
    1UNL     C9   10  -0.137  -0.037  -0.125
    1UNL     N2   11  -0.072  -0.049  -0.248
    1UNL    C10   12  -0.020   0.075  -0.286
    1UNL    C11   13   0.061   0.122  -0.394
    1UNL    C12   14   0.091   0.254  -0.405
    1UNL    C13   15   0.052   0.343  -0.312
    1UNL    C14   16  -0.013   0.301  -0.202
    1UNL    C15   17  -0.052   0.167  -0.186
    1UNL    C16   18  -0.180  -0.163  -0.059
    1UNL    C17   19  -0.060  -0.257  -0.048
    1UNL    C18   20  -0.078  -0.399  -0.043
    1UNL     O1   21  -0.208  -0.455  -0.040
    1UNL    C19   22  -0.234  -0.541  -0.149
    1UNL    C20   23   0.034  -0.484  -0.038
    1UNL    C21   24   0.164  -0.436  -0.041
    1UNL    C22   25   0.184  -0.297  -0.033
    1UNL    C23   26   0.300  -0.209  -0.043
    1UNL    C24   27   0.263  -0.077  -0.046
    1UNL     N3   28   0.126  -0.078  -0.051
    1UNL    C25   29   0.072  -0.213  -0.044
    1UNL    C26   30   0.334   0.046  -0.006
    1UNL    C27   31   0.265   0.093   0.130
    1UNL     O2   32   0.254   0.011   0.219
    1UNL     O3   33   0.214   0.224   0.137
    1UNL    C28   34   0.139   0.228   0.258
    1UNL    C29   35   0.322   0.152  -0.120
    1UNL    C30   36   0.460   0.164  -0.201
    1UNL    C31   37   0.563   0.233  -0.103
    1UNL    C32   38   0.569   0.146   0.033
    1UNL    C33   39   0.525   0.227   0.148
    1UNL    C34   40   0.618   0.340   0.198
    1UNL    C35   41   0.483   0.016   0.012
    1UNL     N4   42   0.542  -0.042  -0.105
    1UNL    C36   43   0.541  -0.193  -0.123
    1UNL    C37   44   0.442  -0.262  -0.020
    1UNL    C38   45   0.519   0.027  -0.236
    1UNL    C39   46  -0.244  -0.179   0.076
    1UNL    C40   47  -0.370  -0.103   0.117
    1UNL    C41   48  -0.346   0.030   0.193
    1UNL    C42   49  -0.461   0.063   0.279
    1UNL     O4   50  -0.525   0.166   0.271
    1UNL     O5   51  -0.492  -0.039   0.362
    1UNL    C43   52  -0.586  -0.012   0.460
    1UNL     H1   53  -0.790  -0.235   0.108
    1UNL     H2   54  -0.746  -0.056   0.068
    1UNL     H3   55  -0.663  -0.162   0.205
    1UNL     H4   56  -0.629  -0.174  -0.106
    1UNL     H5   57  -0.554  -0.282   0.009
    1UNL     H6   58  -0.398  -0.122  -0.089
    1UNL     H7   59  -0.564   0.067  -0.120
    1UNL     H8   60  -0.573   0.098   0.056
    1UNL     H9   61  -0.519   0.329   0.011
    1UNL    H10   62  -0.467   0.316  -0.158
    1UNL    H11   63  -0.354   0.364  -0.039
    1UNL    H12   64  -0.318   0.239   0.153
    1UNL    H13   65  -0.123   0.244   0.063
    1UNL    H14   66  -0.095   0.099   0.127
    1UNL    H15   67  -0.054  -0.136  -0.298
    1UNL    H16   68   0.100   0.053  -0.459
    1UNL    H17   69   0.132   0.285  -0.499
    1UNL    H18   70   0.073   0.446  -0.347
    1UNL    H19   71  -0.047   0.376  -0.130
    1UNL    H20   72  -0.249  -0.213  -0.135
    1UNL    H21   73  -0.199  -0.643  -0.131
    1UNL    H22   74  -0.339  -0.539  -0.169
    1UNL    H23   75  -0.172  -0.511  -0.239
    1UNL    H24   76   0.010  -0.586  -0.060
    1UNL    H25   77   0.255  -0.498  -0.038
    1UNL    H26   78   0.071   0.005  -0.034
    1UNL    H27   79   0.044   0.269   0.222
    1UNL    H28   80   0.111   0.132   0.308
    1UNL    H29   81   0.179   0.288   0.331
    1UNL    H30   82   0.243   0.109  -0.187
    1UNL    H31   83   0.287   0.245  -0.081
    1UNL    H32   84   0.448   0.223  -0.295
    1UNL    H33   85   0.659   0.248  -0.152
    1UNL    H34   86   0.535   0.341  -0.077
    1UNL    H35   87   0.676   0.112   0.048
    1UNL    H36   88   0.508   0.156   0.226
    1UNL    H37   89   0.417   0.256   0.126
    1UNL    H38   90   0.668   0.323   0.294
    1UNL    H39   91   0.687   0.368   0.115
    1UNL    H40   92   0.551   0.420   0.222
    1UNL    H41   93   0.495  -0.062   0.094
    1UNL    H42   94   0.524  -0.215  -0.224
    1UNL    H43   95   0.646  -0.231  -0.104
    1UNL    H44   96   0.435  -0.369  -0.031
    1UNL    H45   97   0.476  -0.248   0.090
    1UNL    H46   98   0.610   0.022  -0.298
    1UNL    H47   99   0.447  -0.028  -0.305
    1UNL    H48  100  -0.266  -0.287   0.098
    1UNL    H49  101  -0.163  -0.170   0.150
    1UNL    H50  102  -0.429  -0.165   0.184
    1UNL    H51  103  -0.269   0.021   0.271
    1UNL    H52  104  -0.552   0.073   0.521
    1UNL    H53  105  -0.697   0.005   0.438
    1UNL    H54  106  -0.588  -0.095   0.529
   0.00000   0.00000   0.00000   0.00000   0.00000   0.00000   0.00000   0.00000   0.00000
Generated with MDTraj, t= 14.0
 106
    1UNL     C1    1  -0.662  -0.167   0.122
    1UNL     C2    2  -0.579  -0.183  -0.004
    1UNL     C3    3  -0.463  -0.090  -0.009
    1UNL     C4    4  -0.517   0.055  -0.019
    1UNL     N1    5  -0.406   0.155  -0.018
    1UNL     C5    6  -0.449   0.293  -0.072
    1UNL     C6    7  -0.312   0.154   0.097
    1UNL     C7    8  -0.169   0.146   0.057
    1UNL     C8    9  -0.140   0.092  -0.078
    1UNL     C9   10  -0.145  -0.037  -0.128
    1UNL     N2   11  -0.090  -0.033  -0.255
    1UNL    C10   12  -0.046   0.093  -0.288
    1UNL    C11   13   0.037   0.137  -0.394
    1UNL    C12   14   0.082   0.262  -0.386
    1UNL    C13   15   0.060   0.343  -0.277
    1UNL    C14   16  -0.028   0.309  -0.176
    1UNL    C15   17  -0.074   0.173  -0.177
    1UNL    C16   18  -0.172  -0.168  -0.058
    1UNL    C17   19  -0.051  -0.265  -0.065
    1UNL    C18   20  -0.071  -0.402  -0.067
    1UNL     O1   21  -0.206  -0.454  -0.067
    1UNL    C19   22  -0.234  -0.528  -0.182
    1UNL    C20   23   0.042  -0.495  -0.079
    1UNL    C21   24   0.164  -0.450  -0.065
    1UNL    C22   25   0.193  -0.308  -0.055
    1UNL    C23   26   0.316  -0.232  -0.035
    1UNL    C24   27   0.275  -0.097  -0.031
    1UNL     N3   28   0.138  -0.091  -0.058
    1UNL    C25   29   0.082  -0.218  -0.057
    1UNL    C26   30   0.342   0.032   0.011
    1UNL    C27   31   0.281   0.089   0.138
    1UNL     O2   32   0.312   0.050   0.250
    1UNL     O3   33   0.181   0.184   0.110
    1UNL    C28   34   0.158   0.248   0.230
    1UNL    C29   35   0.319   0.131  -0.106
    1UNL    C30   36   0.447   0.137  -0.194
    1UNL    C31   37   0.549   0.224  -0.124
    1UNL    C32   38   0.570   0.166   0.023
    1UNL    C33   39   0.523   0.248   0.147
    1UNL    C34   40   0.623   0.365   0.179
    1UNL    C35   41   0.496   0.022   0.025
    1UNL     N4   42   0.549  -0.058  -0.084
    1UNL    C36   43   0.557  -0.210  -0.088
    1UNL    C37   44   0.453  -0.273  -0.004
    1UNL    C38   45   0.505  -0.004  -0.225
    1UNL    C39   46  -0.225  -0.175   0.086
    1UNL    C40   47  -0.359  -0.096   0.119
    1UNL    C41   48  -0.347   0.039   0.193
    1UNL    C42   49  -0.471   0.071   0.283
    1UNL     O4   50  -0.537   0.170   0.258
    1UNL     O5   51  -0.504  -0.010   0.391
    1UNL    C43   52  -0.636   0.013   0.447
    1UNL     H1   53  -0.738  -0.249   0.152
    1UNL     H2   54  -0.722  -0.068   0.107
    1UNL     H3   55  -0.602  -0.166   0.213
    1UNL     H4   56  -0.638  -0.165  -0.095
    1UNL     H5   57  -0.532  -0.279  -0.009
    1UNL     H6   58  -0.385  -0.107  -0.095
    1UNL     H7   59  -0.577   0.070  -0.109
    1UNL     H8   60  -0.587   0.081   0.062
    1UNL     H9   61  -0.477   0.367   0.006
    1UNL    H10   62  -0.531   0.288  -0.135
    1UNL    H11   63  -0.371   0.332  -0.136
    1UNL    H12   64  -0.325   0.248   0.155
    1UNL    H13   65  -0.125   0.239   0.070
    1UNL    H14   66  -0.110   0.088   0.125
    1UNL    H15   67  -0.059  -0.108  -0.317
    1UNL    H16   68   0.065   0.061  -0.473
    1UNL    H17   69   0.145   0.295  -0.469
    1UNL    H18   70   0.095   0.442  -0.281
    1UNL    H19   71  -0.040   0.387  -0.101
    1UNL    H20   72  -0.256  -0.215  -0.121
    1UNL    H21   73  -0.156  -0.597  -0.213
    1UNL    H22   74  -0.326  -0.576  -0.165
    1UNL    H23   75  -0.243  -0.463  -0.267
    1UNL    H24   76   0.016  -0.600  -0.070
    1UNL    H25   77   0.249  -0.514  -0.065
    1UNL    H26   78   0.078  -0.009  -0.064
    1UNL    H27   79   0.087   0.175   0.272
    1UNL    H28   80   0.243   0.265   0.297
    1UNL    H29   81   0.109   0.336   0.212
    1UNL    H30   82   0.239   0.082  -0.178
    1UNL    H31   83   0.283   0.222  -0.073
    1UNL    H32   84   0.417   0.186  -0.290
    1UNL    H33   85   0.642   0.227  -0.182
    1UNL    H34   86   0.513   0.331  -0.110
    1UNL    H35   87   0.677   0.138   0.039
    1UNL    H36   88   0.509   0.180   0.227
    1UNL    H37   89   0.417   0.290   0.131
    1UNL    H38   90   0.729   0.345   0.167
    1UNL    H39   91   0.592   0.439   0.098
    1UNL    H40   92   0.602   0.407   0.275
    1UNL    H41   93   0.514  -0.028   0.125
    1UNL    H42   94   0.558  -0.244  -0.188
    1UNL    H43   95   0.660  -0.238  -0.053
    1UNL    H44   96   0.462  -0.380  -0.011
    1UNL    H45   97   0.471  -0.260   0.109
    1UNL    H46   98   0.582   0.001  -0.303
    1UNL    H47   99   0.427  -0.073  -0.271
    1UNL    H48  100  -0.237  -0.271   0.140
    1UNL    H49  101  -0.150  -0.137   0.156
    1UNL    H50  102  -0.404  -0.161   0.195
    1UNL    H51  103  -0.263   0.022   0.264
    1UNL    H52  104  -0.640   0.121   0.462
    1UNL    H53  105  -0.727  -0.021   0.390
    1UNL    H54  106  -0.641  -0.025   0.547
   0.00000   0.00000   0.00000   0.00000   0.00000   0.00000   0.00000   0.00000   0.00000
Generated with MDTraj, t= 15.0
 106
    1UNL     C1    1  -0.665  -0.191   0.113
    1UNL     C2    2  -0.559  -0.201   0.003
    1UNL     C3    3  -0.447  -0.099  -0.004
    1UNL     C4    4  -0.502   0.048  -0.020
    1UNL     N1    5  -0.394   0.142  -0.021
    1UNL     C5    6  -0.426   0.281  -0.075
    1UNL     C6    7  -0.314   0.148   0.107
    1UNL     C7    8  -0.163   0.151   0.075
    1UNL     C8    9  -0.125   0.092  -0.060
    1UNL     C9   10  -0.142  -0.036  -0.110
    1UNL     N2   11  -0.104  -0.037  -0.245
    1UNL    C10   12  -0.051   0.090  -0.274
    1UNL    C11   13  -0.001   0.150  -0.389
    1UNL    C12   14   0.045   0.277  -0.383
    1UNL    C13   15   0.040   0.356  -0.267
    1UNL    C14   16  -0.014   0.301  -0.152
    1UNL    C15   17  -0.062   0.172  -0.157
    1UNL    C16   18  -0.171  -0.168  -0.049
    1UNL    C17   19  -0.054  -0.257  -0.061
    1UNL    C18   20  -0.072  -0.394  -0.092
    1UNL     O1   21  -0.206  -0.439  -0.109
    1UNL    C19   22  -0.226  -0.525  -0.218
    1UNL    C20   23   0.043  -0.480  -0.102
    1UNL    C21   24   0.169  -0.444  -0.077
    1UNL    C22   25   0.185  -0.301  -0.041
    1UNL    C23   26   0.301  -0.223  -0.009
    1UNL    C24   27   0.257  -0.091   0.006
    1UNL     N3   28   0.120  -0.091  -0.000
    1UNL    C25   29   0.074  -0.215  -0.035
    1UNL    C26   30   0.335   0.038   0.013
    1UNL    C27   31   0.284   0.115   0.131
    1UNL     O2   32   0.346   0.110   0.235
    1UNL     O3   33   0.169   0.184   0.116
    1UNL    C28   34   0.140   0.246   0.234
    1UNL    C29   35   0.319   0.110  -0.127
    1UNL    C30   36   0.452   0.121  -0.203
    1UNL    C31   37   0.547   0.212  -0.115
    1UNL    C32   38   0.572   0.146   0.023
    1UNL    C33   39   0.557   0.248   0.141
    1UNL    C34   40   0.640   0.376   0.125
    1UNL    C35   41   0.492   0.006   0.026
    1UNL     N4   42   0.539  -0.072  -0.083
    1UNL    C36   43   0.538  -0.227  -0.083
    1UNL    C37   44   0.434  -0.282   0.014
    1UNL    C38   45   0.515  -0.017  -0.220
    1UNL    C39   46  -0.216  -0.160   0.097
    1UNL    C40   47  -0.357  -0.104   0.125
    1UNL    C41   48  -0.350   0.030   0.192
    1UNL    C42   49  -0.481   0.069   0.259
    1UNL     O4   50  -0.539   0.169   0.223
    1UNL     O5   51  -0.521  -0.017   0.360
    1UNL    C43   52  -0.610   0.042   0.443
    1UNL     H1   53  -0.744  -0.272   0.118
    1UNL     H2   54  -0.718  -0.090   0.095
    1UNL     H3   55  -0.616  -0.203   0.215
    1UNL     H4   56  -0.614  -0.201  -0.093
    1UNL     H5   57  -0.519  -0.301   0.015
    1UNL     H6   58  -0.389  -0.131  -0.101
    1UNL     H7   59  -0.551   0.052  -0.119
    1UNL     H8   60  -0.586   0.071   0.046
    1UNL     H9   61  -0.527   0.314  -0.046
    1UNL    H10   62  -0.410   0.291  -0.174
    1UNL    H11   63  -0.350   0.347  -0.031
    1UNL    H12   64  -0.344   0.235   0.165
    1UNL    H13   65  -0.117   0.245   0.079
    1UNL    H14   66  -0.117   0.099   0.154
    1UNL    H15   67  -0.097  -0.115  -0.310
    1UNL    H16   68   0.000   0.096  -0.481
    1UNL    H17   69   0.083   0.319  -0.474
    1UNL    H18   70   0.101   0.449  -0.266
    1UNL    H19   71  -0.012   0.363  -0.065
    1UNL    H20   72  -0.251  -0.224  -0.110
    1UNL    H21   73  -0.153  -0.600  -0.232
    1UNL    H22   74  -0.324  -0.563  -0.208
    1UNL    H23   75  -0.219  -0.468  -0.304
    1UNL    H24   76   0.022  -0.584  -0.124
    1UNL    H25   77   0.259  -0.509  -0.080
    1UNL    H26   78   0.065  -0.004  -0.000
    1UNL    H27   79   0.240   0.265   0.283
    1UNL    H28   80   0.079   0.338   0.229
    1UNL    H29   81   0.093   0.168   0.287
    1UNL    H30   82   0.234   0.056  -0.185
    1UNL    H31   83   0.288   0.209  -0.112
    1UNL    H32   84   0.423   0.167  -0.300
    1UNL    H33   85   0.651   0.228  -0.152
    1UNL    H34   86   0.497   0.311  -0.102
    1UNL    H35   87   0.676   0.106   0.024
    1UNL    H36   88   0.594   0.195   0.225
    1UNL    H37   89   0.447   0.266   0.165
    1UNL    H38   90   0.745   0.373   0.145
    1UNL    H39   91   0.631   0.405   0.015
    1UNL    H40   92   0.594   0.458   0.175
    1UNL    H41   93   0.509  -0.051   0.122
    1UNL    H42   94   0.521  -0.263  -0.181
    1UNL    H43   95   0.641  -0.269  -0.063
    1UNL    H44   96   0.424  -0.389   0.002
    1UNL    H45   97   0.475  -0.279   0.120
    1UNL    H46   98   0.610  -0.005  -0.273
    1UNL    H47   99   0.448  -0.089  -0.278
    1UNL    H48  100  -0.218  -0.256   0.152
    1UNL    H49  101  -0.145  -0.117   0.167
    1UNL    H50  102  -0.406  -0.173   0.199
    1UNL    H51  103  -0.271   0.008   0.269
    1UNL    H52  104  -0.550   0.096   0.516
    1UNL    H53  105  -0.684   0.107   0.392
    1UNL    H54  106  -0.650  -0.035   0.504
   0.00000   0.00000   0.00000   0.00000   0.00000   0.00000   0.00000   0.00000   0.00000
Generated with MDTraj, t= 16.0
 106
    1UNL     C1    1  -0.698  -0.172   0.093
    1UNL     C2    2  -0.593  -0.198  -0.009
    1UNL     C3    3  -0.476  -0.096  -0.007
    1UNL     C4    4  -0.514   0.056  -0.038
    1UNL     N1    5  -0.378   0.130  -0.037
    1UNL     C5    6  -0.382   0.264  -0.092
    1UNL     C6    7  -0.316   0.132   0.106
    1UNL     C7    8  -0.159   0.133   0.092
    1UNL     C8    9  -0.117   0.094  -0.047
    1UNL     C9   10  -0.134  -0.028  -0.100
    1UNL     N2   11  -0.095  -0.025  -0.233
    1UNL    C10   12  -0.057   0.102  -0.269
    1UNL    C11   13  -0.010   0.151  -0.395
    1UNL    C12   14   0.027   0.284  -0.400
    1UNL    C13   15   0.019   0.362  -0.284
    1UNL    C14   16  -0.025   0.310  -0.163
    1UNL    C15   17  -0.067   0.177  -0.154
    1UNL    C16   18  -0.170  -0.166  -0.052
    1UNL    C17   19  -0.043  -0.252  -0.053
    1UNL    C18   20  -0.056  -0.387  -0.107
    1UNL     O1   21  -0.185  -0.414  -0.158
    1UNL    C19   22  -0.193  -0.518  -0.250
    1UNL    C20   23   0.051  -0.481  -0.094
    1UNL    C21   24   0.178  -0.438  -0.052
    1UNL    C22   25   0.194  -0.305  -0.009
    1UNL    C23   26   0.309  -0.225   0.025
    1UNL    C24   27   0.262  -0.095   0.036
    1UNL     N3   28   0.125  -0.093   0.035
    1UNL    C25   29   0.081  -0.214  -0.011
    1UNL    C26   30   0.342   0.034   0.022
    1UNL    C27   31   0.299   0.116   0.140
    1UNL     O2   32   0.354   0.116   0.249
    1UNL     O3   33   0.183   0.183   0.112
    1UNL    C28   34   0.134   0.258   0.217
    1UNL    C29   35   0.306   0.111  -0.119
    1UNL    C30   36   0.427   0.120  -0.210
    1UNL    C31   37   0.534   0.211  -0.137
    1UNL    C32   38   0.581   0.143  -0.004
    1UNL    C33   39   0.584   0.247   0.112
    1UNL    C34   40   0.699   0.342   0.113
    1UNL    C35   41   0.499   0.008   0.025
    1UNL     N4   42   0.530  -0.075  -0.094
    1UNL    C36   43   0.538  -0.222  -0.076
    1UNL    C37   44   0.450  -0.267   0.038
    1UNL    C38   45   0.486  -0.024  -0.230
    1UNL    C39   46  -0.242  -0.173   0.090
    1UNL    C40   47  -0.383  -0.114   0.123
    1UNL    C41   48  -0.363   0.021   0.200
    1UNL    C42   49  -0.487   0.070   0.285
    1UNL     O4   50  -0.542   0.175   0.262
    1UNL     O5   51  -0.520  -0.017   0.384
    1UNL    C43   52  -0.647   0.016   0.440
    1UNL     H1   53  -0.795  -0.230   0.097
    1UNL     H2   54  -0.728  -0.063   0.088
    1UNL     H3   55  -0.660  -0.199   0.201
    1UNL     H4   56  -0.647  -0.205  -0.105
    1UNL     H5   57  -0.559  -0.300   0.003
    1UNL     H6   58  -0.421  -0.136  -0.094
    1UNL     H7   59  -0.572   0.061  -0.133
    1UNL     H8   60  -0.591   0.091   0.031
    1UNL     H9   61  -0.430   0.331  -0.024
    1UNL    H10   62  -0.449   0.254  -0.178
    1UNL    H11   63  -0.287   0.297  -0.131
    1UNL    H12   64  -0.352   0.222   0.155
    1UNL    H13   65  -0.142   0.235   0.099
    1UNL    H14   66  -0.106   0.089   0.171
    1UNL    H15   67  -0.100  -0.111  -0.289
    1UNL    H16   68  -0.033   0.087  -0.478
    1UNL    H17   69   0.069   0.322  -0.494
    1UNL    H18   70   0.058   0.459  -0.297
    1UNL    H19   71  -0.017   0.370  -0.069
    1UNL    H20   72  -0.244  -0.218  -0.119
    1UNL    H21   73  -0.236  -0.604  -0.208
    1UNL    H22   74  -0.251  -0.481  -0.330
    1UNL    H23   75  -0.101  -0.543  -0.281
    1UNL    H24   76   0.040  -0.577  -0.137
    1UNL    H25   77   0.264  -0.502  -0.055
    1UNL    H26   78   0.074  -0.008   0.011
    1UNL    H27   79   0.041   0.319   0.190
    1UNL    H28   80   0.126   0.192   0.304
    1UNL    H29   81   0.219   0.321   0.234
    1UNL    H30   82   0.221   0.061  -0.168
    1UNL    H31   83   0.272   0.214  -0.097
    1UNL    H32   84   0.402   0.153  -0.312
    1UNL    H33   85   0.619   0.219  -0.211
    1UNL    H34   86   0.509   0.312  -0.100
    1UNL    H35   87   0.680   0.101  -0.025
    1UNL    H36   88   0.591   0.185   0.199
    1UNL    H37   89   0.483   0.300   0.121
    1UNL    H38   90   0.790   0.300   0.075
    1UNL    H39   91   0.674   0.420   0.035
    1UNL    H40   92   0.715   0.404   0.199
    1UNL    H41   93   0.547  -0.055   0.107
    1UNL    H42   94   0.519  -0.277  -0.165
    1UNL    H43   95   0.643  -0.257  -0.055
    1UNL    H44   96   0.456  -0.376   0.036
    1UNL    H45   97   0.490  -0.241   0.136
    1UNL    H46   98   0.570  -0.019  -0.303
    1UNL    H47   99   0.403  -0.088  -0.273
    1UNL    H48  100  -0.238  -0.275   0.131
    1UNL    H49  101  -0.164  -0.142   0.160
    1UNL    H50  102  -0.437  -0.182   0.194
    1UNL    H51  103  -0.278  -0.009   0.270
    1UNL    H52  104  -0.650   0.096   0.512
    1UNL    H53  105  -0.712   0.039   0.352
    1UNL    H54  106  -0.678  -0.064   0.504
   0.00000   0.00000   0.00000   0.00000   0.00000   0.00000   0.00000   0.00000   0.00000
Generated with MDTraj, t= 17.0
 106
    1UNL     C1    1  -0.693  -0.116   0.096
    1UNL     C2    2  -0.591  -0.170   0.001
    1UNL     C3    3  -0.467  -0.080  -0.019
    1UNL     C4    4  -0.507   0.064  -0.028
    1UNL     N1    5  -0.394   0.155  -0.035
    1UNL     C5    6  -0.413   0.272  -0.118
    1UNL     C6    7  -0.326   0.147   0.099
    1UNL     C7    8  -0.162   0.137   0.082
    1UNL     C8    9  -0.130   0.087  -0.051
    1UNL     C9   10  -0.134  -0.045  -0.109
    1UNL     N2   11  -0.094  -0.035  -0.238
    1UNL    C10   12  -0.060   0.098  -0.264
    1UNL    C11   13   0.000   0.149  -0.378
    1UNL    C12   14   0.025   0.281  -0.378
    1UNL    C13   15  -0.003   0.371  -0.266
    1UNL    C14   16  -0.057   0.315  -0.152
    1UNL    C15   17  -0.083   0.176  -0.147
    1UNL    C16   18  -0.173  -0.176  -0.054
    1UNL    C17   19  -0.052  -0.266  -0.053
    1UNL    C18   20  -0.051  -0.396  -0.099
    1UNL     O1   21  -0.168  -0.436  -0.174
    1UNL    C19   22  -0.136  -0.528  -0.271
    1UNL    C20   23   0.062  -0.482  -0.081
    1UNL    C21   24   0.176  -0.441  -0.018
    1UNL    C22   25   0.183  -0.303  -0.002
    1UNL    C23   26   0.298  -0.222   0.035
    1UNL    C24   27   0.255  -0.092   0.048
    1UNL     N3   28   0.119  -0.095   0.029
    1UNL    C25   29   0.073  -0.220  -0.002
    1UNL    C26   30   0.344   0.035   0.034
    1UNL    C27   31   0.310   0.132   0.146
    1UNL     O2   32   0.388   0.140   0.238
    1UNL     O3   33   0.197   0.207   0.143
    1UNL    C28   34   0.188   0.297   0.255
    1UNL    C29   35   0.299   0.107  -0.106
    1UNL    C30   36   0.412   0.116  -0.208
    1UNL    C31   37   0.531   0.203  -0.149
    1UNL    C32   38   0.584   0.136  -0.017
    1UNL    C33   39   0.592   0.238   0.101
    1UNL    C34   40   0.725   0.315   0.091
    1UNL    C35   41   0.495   0.010   0.017
    1UNL     N4   42   0.506  -0.081  -0.096
    1UNL    C36   43   0.523  -0.232  -0.084
    1UNL    C37   44   0.444  -0.276   0.036
    1UNL    C38   45   0.473  -0.025  -0.234
    1UNL    C39   46  -0.239  -0.174   0.088
    1UNL    C40   47  -0.377  -0.101   0.104
    1UNL    C41   48  -0.365   0.028   0.196
    1UNL    C42   49  -0.494   0.049   0.266
    1UNL     O4   50  -0.554   0.153   0.255
    1UNL     O5   51  -0.533  -0.057   0.350
    1UNL    C43   52  -0.633  -0.010   0.441
    1UNL     H1   53  -0.790  -0.173   0.106
    1UNL     H2   54  -0.721  -0.013   0.067
    1UNL     H3   55  -0.662  -0.119   0.208
    1UNL     H4   56  -0.641  -0.197  -0.094
    1UNL     H5   57  -0.559  -0.268   0.034
    1UNL     H6   58  -0.408  -0.095  -0.106
    1UNL     H7   59  -0.571   0.076  -0.119
    1UNL     H8   60  -0.579   0.097   0.048
    1UNL     H9   61  -0.406   0.358  -0.063
    1UNL    H10   62  -0.512   0.274  -0.180
    1UNL    H11   63  -0.335   0.263  -0.190
    1UNL    H12   64  -0.353   0.237   0.152
    1UNL    H13   65  -0.120   0.230   0.103
    1UNL    H14   66  -0.132   0.071   0.156
    1UNL    H15   67  -0.077  -0.115  -0.301
    1UNL    H16   68   0.008   0.077  -0.465
    1UNL    H17   69   0.058   0.325  -0.469
    1UNL    H18   70   0.011   0.481  -0.257
    1UNL    H19   71  -0.067   0.379  -0.070
    1UNL    H20   72  -0.245  -0.232  -0.116
    1UNL    H21   73  -0.100  -0.615  -0.225
    1UNL    H22   74  -0.230  -0.553  -0.313
    1UNL    H23   75  -0.074  -0.493  -0.344
    1UNL    H24   76   0.046  -0.591  -0.088
    1UNL    H25   77   0.259  -0.506  -0.006
    1UNL    H26   78   0.056  -0.017   0.038
    1UNL    H27   79   0.214   0.256   0.358
    1UNL    H28   80   0.253   0.379   0.221
    1UNL    H29   81   0.086   0.338   0.256
    1UNL    H30   82   0.226   0.046  -0.149
    1UNL    H31   83   0.251   0.212  -0.096
    1UNL    H32   84   0.375   0.158  -0.299
    1UNL    H33   85   0.627   0.222  -0.206
    1UNL    H34   86   0.486   0.303  -0.136
    1UNL    H35   87   0.684   0.106  -0.040
    1UNL    H36   88   0.585   0.185   0.195
    1UNL    H37   89   0.510   0.316   0.089
    1UNL    H38   90   0.809   0.248   0.082
    1UNL    H39   91   0.724   0.374  -0.003
    1UNL    H40   92   0.736   0.396   0.164
    1UNL    H41   93   0.537  -0.025   0.116
    1UNL    H42   94   0.500  -0.293  -0.168
    1UNL    H43   95   0.631  -0.262  -0.072
    1UNL    H44   96   0.439  -0.386   0.045
    1UNL    H45   97   0.493  -0.232   0.119
    1UNL    H46   98   0.564  -0.012  -0.297
    1UNL    H47   99   0.397  -0.096  -0.279
    1UNL    H48  100  -0.243  -0.278   0.122
    1UNL    H49  101  -0.166  -0.147   0.166
    1UNL    H50  102  -0.436  -0.162   0.178
    1UNL    H51  103  -0.288   0.010   0.278
    1UNL    H52  104  -0.637   0.096   0.470
    1UNL    H53  105  -0.728  -0.040   0.389
    1UNL    H54  106  -0.616  -0.064   0.533
   0.00000   0.00000   0.00000   0.00000   0.00000   0.00000   0.00000   0.00000   0.00000
Generated with MDTraj, t= 18.0
 106
    1UNL     C1    1  -0.705  -0.161   0.072
    1UNL     C2    2  -0.597  -0.186  -0.039
    1UNL     C3    3  -0.479  -0.087  -0.033
    1UNL     C4    4  -0.509   0.060  -0.060
    1UNL     N1    5  -0.387   0.152  -0.028
    1UNL     C5    6  -0.406   0.297  -0.066
    1UNL     C6    7  -0.322   0.137   0.103
    1UNL     C7    8  -0.163   0.129   0.082
    1UNL     C8    9  -0.128   0.090  -0.059
    1UNL     C9   10  -0.141  -0.034  -0.115
    1UNL     N2   11  -0.082  -0.032  -0.240
    1UNL    C10   12  -0.048   0.100  -0.268
    1UNL    C11   13   0.010   0.156  -0.388
    1UNL    C12   14   0.034   0.297  -0.389
    1UNL    C13   15   0.004   0.374  -0.272
    1UNL    C14   16  -0.047   0.314  -0.161
    1UNL    C15   17  -0.072   0.178  -0.155
    1UNL    C16   18  -0.169  -0.177  -0.063
    1UNL    C17   19  -0.049  -0.260  -0.035
    1UNL    C18   20  -0.052  -0.390  -0.083
    1UNL     O1   21  -0.172  -0.446  -0.133
    1UNL    C19   22  -0.147  -0.507  -0.259
    1UNL    C20   23   0.060  -0.479  -0.072
    1UNL    C21   24   0.176  -0.426  -0.011
    1UNL    C22   25   0.180  -0.295   0.027
    1UNL    C23   26   0.292  -0.213   0.051
    1UNL    C24   27   0.254  -0.079   0.041
    1UNL     N3   28   0.116  -0.074   0.016
    1UNL    C25   29   0.075  -0.205   0.014
    1UNL    C26   30   0.339   0.041   0.026
    1UNL    C27   31   0.322   0.127   0.151
    1UNL     O2   32   0.385   0.108   0.256
    1UNL     O3   33   0.223   0.223   0.140
    1UNL    C28   34   0.211   0.289   0.266
    1UNL    C29   35   0.290   0.119  -0.098
    1UNL    C30   36   0.393   0.120  -0.207
    1UNL    C31   37   0.522   0.198  -0.154
    1UNL    C32   38   0.590   0.127  -0.029
    1UNL    C33   39   0.620   0.218   0.089
    1UNL    C34   40   0.722   0.329   0.061
    1UNL    C35   41   0.489   0.008   0.011
    1UNL     N4   42   0.504  -0.087  -0.106
    1UNL    C36   43   0.500  -0.232  -0.074
    1UNL    C37   44   0.428  -0.267   0.058
    1UNL    C38   45   0.440  -0.022  -0.232
    1UNL    C39   46  -0.247  -0.186   0.070
    1UNL    C40   47  -0.390  -0.110   0.093
    1UNL    C41   48  -0.368   0.016   0.187
    1UNL    C42   49  -0.489   0.039   0.275
    1UNL     O4   50  -0.556   0.135   0.244
    1UNL     O5   51  -0.513  -0.050   0.375
    1UNL    C43   52  -0.636  -0.007   0.442
    1UNL     H1   53  -0.790  -0.236   0.062
    1UNL     H2   54  -0.737  -0.053   0.062
    1UNL     H3   55  -0.672  -0.184   0.174
    1UNL     H4   56  -0.648  -0.177  -0.136
    1UNL     H5   57  -0.562  -0.290  -0.039
    1UNL     H6   58  -0.417  -0.107  -0.111
    1UNL     H7   59  -0.556   0.071  -0.161
    1UNL     H8   60  -0.595   0.089   0.002
    1UNL     H9   61  -0.403   0.360   0.019
    1UNL    H10   62  -0.508   0.317  -0.110
    1UNL    H11   63  -0.335   0.326  -0.141
    1UNL    H12   64  -0.338   0.223   0.168
    1UNL    H13   65  -0.131   0.224   0.119
    1UNL    H14   66  -0.117   0.055   0.139
    1UNL    H15   67  -0.076  -0.110  -0.307
    1UNL    H16   68   0.041   0.089  -0.458
    1UNL    H17   69   0.056   0.340  -0.487
    1UNL    H18   70   0.027   0.476  -0.276
    1UNL    H19   71  -0.075   0.371  -0.070
    1UNL    H20   72  -0.226  -0.235  -0.137
    1UNL    H21   73  -0.109  -0.601  -0.240
    1UNL    H22   74  -0.241  -0.519  -0.308
    1UNL    H23   75  -0.084  -0.448  -0.320
    1UNL    H24   76   0.062  -0.568  -0.131
    1UNL    H25   77   0.268  -0.489  -0.009
    1UNL    H26   78   0.066   0.007  -0.016
    1UNL    H27   79   0.260   0.388   0.267
    1UNL    H28   80   0.102   0.308   0.271
    1UNL    H29   81   0.250   0.232   0.353
    1UNL    H30   82   0.208   0.071  -0.137
    1UNL    H31   83   0.257   0.224  -0.058
    1UNL    H32   84   0.356   0.159  -0.297
    1UNL    H33   85   0.587   0.224  -0.245
    1UNL    H34   86   0.496   0.292  -0.107
    1UNL    H35   87   0.681   0.092  -0.071
    1UNL    H36   88   0.657   0.151   0.167
    1UNL    H37   89   0.523   0.262   0.123
    1UNL    H38   90   0.813   0.276   0.032
    1UNL    H39   91   0.704   0.398  -0.019
    1UNL    H40   92   0.737   0.401   0.144
    1UNL    H41   93   0.535  -0.050   0.096
    1UNL    H42   94   0.459  -0.291  -0.153
    1UNL    H43   95   0.603  -0.276  -0.076
    1UNL    H44   96   0.419  -0.377   0.077
    1UNL    H45   97   0.469  -0.222   0.141
    1UNL    H46   98   0.510  -0.016  -0.319
    1UNL    H47   99   0.348  -0.081  -0.253
    1UNL    H48  100  -0.271  -0.288   0.102
    1UNL    H49  101  -0.181  -0.156   0.152
    1UNL    H50  102  -0.448  -0.178   0.162
    1UNL    H51  103  -0.276  -0.004   0.254
    1UNL    H52  104  -0.626   0.074   0.518
    1UNL    H53  105  -0.699   0.030   0.355
    1UNL    H54  106  -0.682  -0.097   0.482
   0.00000   0.00000   0.00000   0.00000   0.00000   0.00000   0.00000   0.00000   0.00000
Generated with MDTraj, t= 19.0
 106
    1UNL     C1    1  -0.696  -0.200   0.017
    1UNL     C2    2  -0.574  -0.184  -0.082
    1UNL     C3    3  -0.462  -0.080  -0.053
    1UNL     C4    4  -0.502   0.069  -0.060
    1UNL     N1    5  -0.391   0.160  -0.029
    1UNL     C5    6  -0.409   0.305  -0.054
    1UNL     C6    7  -0.324   0.138   0.107
    1UNL     C7    8  -0.169   0.135   0.082
    1UNL     C8    9  -0.135   0.094  -0.056
    1UNL     C9   10  -0.144  -0.033  -0.114
    1UNL     N2   11  -0.100  -0.022  -0.246
    1UNL    C10   12  -0.060   0.109  -0.277
    1UNL    C11   13   0.007   0.160  -0.389
    1UNL    C12   14   0.047   0.291  -0.379
    1UNL    C13   15   0.034   0.369  -0.255
    1UNL    C14   16  -0.037   0.315  -0.145
    1UNL    C15   17  -0.078   0.181  -0.153
    1UNL    C16   18  -0.170  -0.168  -0.052
    1UNL    C17   19  -0.049  -0.256  -0.045
    1UNL    C18   20  -0.066  -0.400  -0.065
    1UNL     O1   21  -0.198  -0.440  -0.105
    1UNL    C19   22  -0.189  -0.512  -0.230
    1UNL    C20   23   0.043  -0.485  -0.038
    1UNL    C21   24   0.169  -0.437   0.002
    1UNL    C22   25   0.181  -0.304   0.026
    1UNL    C23   26   0.301  -0.221   0.038
    1UNL    C24   27   0.258  -0.093   0.033
    1UNL     N3   28   0.123  -0.087   0.004
    1UNL    C25   29   0.075  -0.215   0.004
    1UNL    C26   30   0.343   0.037   0.030
    1UNL    C27   31   0.319   0.128   0.162
    1UNL     O2   32   0.373   0.093   0.267
    1UNL     O3   33   0.244   0.241   0.153
    1UNL    C28   34   0.227   0.286   0.284
    1UNL    C29   35   0.291   0.115  -0.092
    1UNL    C30   36   0.397   0.113  -0.206
    1UNL    C31   37   0.522   0.198  -0.164
    1UNL    C32   38   0.587   0.145  -0.032
    1UNL    C33   39   0.608   0.250   0.073
    1UNL    C34   40   0.708   0.357   0.036
    1UNL    C35   41   0.503   0.011   0.010
    1UNL     N4   42   0.518  -0.085  -0.106
    1UNL    C36   43   0.515  -0.227  -0.088
    1UNL    C37   44   0.438  -0.274   0.037
    1UNL    C38   45   0.440  -0.036  -0.225
    1UNL    C39   46  -0.252  -0.177   0.078
    1UNL    C40   47  -0.392  -0.114   0.084
    1UNL    C41   48  -0.373   0.012   0.183
    1UNL    C42   49  -0.493   0.034   0.273
    1UNL     O4   50  -0.561   0.132   0.247
    1UNL     O5   51  -0.521  -0.060   0.376
    1UNL    C43   52  -0.617   0.001   0.452
    1UNL     H1   53  -0.766  -0.282  -0.027
    1UNL     H2   54  -0.750  -0.103   0.039
    1UNL     H3   55  -0.674  -0.253   0.107
    1UNL     H4   56  -0.614  -0.153  -0.180
    1UNL     H5   57  -0.527  -0.282  -0.104
    1UNL     H6   58  -0.395  -0.097  -0.130
    1UNL     H7   59  -0.547   0.093  -0.159
    1UNL     H8   60  -0.583   0.073   0.012
    1UNL     H9   61  -0.507   0.326  -0.006
    1UNL    H10   62  -0.411   0.347  -0.152
    1UNL    H11   63  -0.326   0.351   0.000
    1UNL    H12   64  -0.363   0.215   0.176
    1UNL    H13   65  -0.122   0.230   0.088
    1UNL    H14   66  -0.126   0.068   0.149
    1UNL    H15   67  -0.077  -0.094  -0.316
    1UNL    H16   68   0.021   0.088  -0.475
    1UNL    H17   69   0.102   0.336  -0.458
    1UNL    H18   70   0.069   0.475  -0.257
    1UNL    H19   71  -0.050   0.373  -0.059
    1UNL    H20   72  -0.233  -0.223  -0.122
    1UNL    H21   73  -0.184  -0.616  -0.211
    1UNL    H22   74  -0.281  -0.495  -0.283
    1UNL    H23   75  -0.109  -0.475  -0.299
    1UNL    H24   76   0.035  -0.593  -0.059
    1UNL    H25   77   0.245  -0.506  -0.013
    1UNL    H26   78   0.068  -0.000  -0.006
    1UNL    H27   79   0.123   0.297   0.309
    1UNL    H28   80   0.256   0.201   0.346
    1UNL    H29   81   0.282   0.378   0.309
    1UNL    H30   82   0.196   0.075  -0.124
    1UNL    H31   83   0.271   0.223  -0.063
    1UNL    H32   84   0.350   0.158  -0.287
    1UNL    H33   85   0.610   0.195  -0.238
    1UNL    H34   86   0.495   0.304  -0.162
    1UNL    H35   87   0.685   0.121  -0.067
    1UNL    H36   88   0.624   0.202   0.170
    1UNL    H37   89   0.508   0.298   0.075
    1UNL    H38   90   0.801   0.303   0.013
    1UNL    H39   91   0.682   0.420  -0.044
    1UNL    H40   92   0.716   0.432   0.119
    1UNL    H41   93   0.543  -0.026   0.109
    1UNL    H42   94   0.483  -0.276  -0.179
    1UNL    H43   95   0.618  -0.270  -0.081
    1UNL    H44   96   0.435  -0.384   0.044
    1UNL    H45   97   0.485  -0.245   0.125
    1UNL    H46   98   0.513  -0.055  -0.309
    1UNL    H47   99   0.346  -0.094  -0.228
    1UNL    H48  100  -0.260  -0.281   0.111
    1UNL    H49  101  -0.188  -0.139   0.160
    1UNL    H50  102  -0.452  -0.191   0.140
    1UNL    H51  103  -0.290  -0.007   0.264
    1UNL    H52  104  -0.582   0.100   0.486
    1UNL    H53  105  -0.705   0.011   0.381
    1UNL    H54  106  -0.635  -0.078   0.524
   0.00000   0.00000   0.00000   0.00000   0.00000   0.00000   0.00000   0.00000   0.00000
Generated with MDTraj, t= 20.0
 106
    1UNL     C1    1  -0.664  -0.176  -0.043
    1UNL     C2    2  -0.527  -0.168  -0.111
    1UNL     C3    3  -0.446  -0.056  -0.044
    1UNL     C4    4  -0.511   0.080  -0.038
    1UNL     N1    5  -0.402   0.183  -0.018
    1UNL     C5    6  -0.441   0.316  -0.084
    1UNL     C6    7  -0.324   0.155   0.109
    1UNL     C7    8  -0.172   0.139   0.094
    1UNL     C8    9  -0.134   0.090  -0.042
    1UNL     C9   10  -0.145  -0.039  -0.099
    1UNL     N2   11  -0.095  -0.032  -0.228
    1UNL    C10   12  -0.047   0.097  -0.250
    1UNL    C11   13   0.007   0.161  -0.363
    1UNL    C12   14   0.044   0.294  -0.355
    1UNL    C13   15   0.033   0.368  -0.235
    1UNL    C14   16  -0.015   0.302  -0.124
    1UNL    C15   17  -0.064   0.169  -0.137
    1UNL    C16   18  -0.177  -0.182  -0.051
    1UNL    C17   19  -0.054  -0.271  -0.031
    1UNL    C18   20  -0.069  -0.403  -0.049
    1UNL     O1   21  -0.198  -0.446  -0.080
    1UNL    C19   22  -0.207  -0.551  -0.174
    1UNL    C20   23   0.044  -0.484  -0.045
    1UNL    C21   24   0.174  -0.436  -0.018
    1UNL    C22   25   0.187  -0.296  -0.014
    1UNL    C23   26   0.300  -0.219   0.017
    1UNL    C24   27   0.258  -0.086   0.022
    1UNL     N3   28   0.123  -0.084  -0.001
    1UNL    C25   29   0.073  -0.211  -0.009
    1UNL    C26   30   0.345   0.038   0.020
    1UNL    C27   31   0.315   0.105   0.153
    1UNL     O2   32   0.374   0.072   0.255
    1UNL     O3   33   0.232   0.219   0.155
    1UNL    C28   34   0.251   0.277   0.273
    1UNL    C29   35   0.298   0.122  -0.105
    1UNL    C30   36   0.405   0.110  -0.221
    1UNL    C31   37   0.531   0.184  -0.178
    1UNL    C32   38   0.581   0.144  -0.032
    1UNL    C33   39   0.553   0.252   0.071
    1UNL    C34   40   0.651   0.371   0.058
    1UNL    C35   41   0.504   0.013  -0.001
    1UNL     N4   42   0.527  -0.083  -0.122
    1UNL    C36   43   0.539  -0.218  -0.086
    1UNL    C37   44   0.445  -0.258   0.035
    1UNL    C38   45   0.440  -0.041  -0.241
    1UNL    C39   46  -0.260  -0.179   0.082
    1UNL    C40   47  -0.389  -0.100   0.097
    1UNL    C41   48  -0.371   0.026   0.187
    1UNL    C42   49  -0.495   0.048   0.273
    1UNL     O4   50  -0.574   0.137   0.243
    1UNL     O5   51  -0.508  -0.048   0.364
    1UNL    C43   52  -0.628  -0.026   0.440
    1UNL     H1   53  -0.712  -0.273  -0.086
    1UNL     H2   54  -0.729  -0.082  -0.052
    1UNL     H3   55  -0.658  -0.210   0.057
    1UNL     H4   56  -0.535  -0.147  -0.220
    1UNL     H5   57  -0.465  -0.262  -0.104
    1UNL     H6   58  -0.357  -0.043  -0.110
    1UNL     H7   59  -0.584   0.093  -0.123
    1UNL     H8   60  -0.571   0.076   0.053
    1UNL     H9   61  -0.518   0.358  -0.013
    1UNL    H10   62  -0.487   0.313  -0.174
    1UNL    H11   63  -0.353   0.382  -0.095
    1UNL    H12   64  -0.355   0.244   0.170
    1UNL    H13   65  -0.130   0.236   0.105
    1UNL    H14   66  -0.125   0.070   0.159
    1UNL    H15   67  -0.082  -0.101  -0.303
    1UNL    H16   68   0.016   0.108  -0.455
    1UNL    H17   69   0.084   0.325  -0.453
    1UNL    H18   70   0.077   0.462  -0.227
    1UNL    H19   71  -0.026   0.357  -0.030
    1UNL    H20   72  -0.229  -0.240  -0.124
    1UNL    H21   73  -0.148  -0.641  -0.150
    1UNL    H22   74  -0.310  -0.586  -0.172
    1UNL    H23   75  -0.193  -0.514  -0.283
    1UNL    H24   76   0.031  -0.591  -0.045
    1UNL    H25   77   0.269  -0.496  -0.008
    1UNL    H26   78   0.061  -0.007  -0.029
    1UNL    H27   79   0.227   0.193   0.337
    1UNL    H28   80   0.357   0.304   0.284
    1UNL    H29   81   0.178   0.354   0.294
    1UNL    H30   82   0.195   0.086  -0.149
    1UNL    H31   83   0.279   0.225  -0.077
    1UNL    H32   84   0.372   0.145  -0.311
    1UNL    H33   85   0.617   0.173  -0.255
    1UNL    H34   86   0.505   0.289  -0.167
    1UNL    H35   87   0.686   0.129  -0.033
    1UNL    H36   88   0.542   0.204   0.171
    1UNL    H37   89   0.453   0.286   0.047
    1UNL    H38   90   0.745   0.315   0.071
    1UNL    H39   91   0.654   0.418  -0.035
    1UNL    H40   92   0.633   0.453   0.132
    1UNL    H41   93   0.550  -0.038   0.089
    1UNL    H42   94   0.521  -0.287  -0.167
    1UNL    H43   95   0.647  -0.233  -0.066
    1UNL    H44   96   0.458  -0.362   0.064
    1UNL    H45   97   0.475  -0.214   0.126
    1UNL    H46   98   0.498  -0.053  -0.336
    1UNL    H47   99   0.353  -0.107  -0.236
    1UNL    H48  100  -0.272  -0.284   0.113
    1UNL    H49  101  -0.188  -0.148   0.160
    1UNL    H50  102  -0.454  -0.167   0.160
    1UNL    H51  103  -0.280   0.011   0.259
    1UNL    H52  104  -0.645   0.082   0.442
    1UNL    H53  105  -0.716  -0.073   0.393
    1UNL    H54  106  -0.605  -0.077   0.530
   0.00000   0.00000   0.00000   0.00000   0.00000   0.00000   0.00000   0.00000   0.00000
Generated with MDTraj, t= 21.0
 106
    1UNL     C1    1  -0.671  -0.161  -0.074
    1UNL     C2    2  -0.525  -0.165  -0.119
    1UNL     C3    3  -0.433  -0.055  -0.051
    1UNL     C4    4  -0.490   0.087  -0.049
    1UNL     N1    5  -0.385   0.180   0.001
    1UNL     C5    6  -0.401   0.325  -0.017
    1UNL     C6    7  -0.323   0.141   0.129
    1UNL     C7    8  -0.169   0.139   0.112
    1UNL     C8    9  -0.134   0.101  -0.034
    1UNL     C9   10  -0.127  -0.029  -0.090
    1UNL     N2   11  -0.071  -0.020  -0.212
    1UNL    C10   12  -0.030   0.111  -0.237
    1UNL    C11   13   0.041   0.152  -0.351
    1UNL    C12   14   0.076   0.286  -0.361
    1UNL    C13   15   0.039   0.373  -0.258
    1UNL    C14   16  -0.029   0.333  -0.145
    1UNL    C15   17  -0.073   0.196  -0.129
    1UNL    C16   18  -0.169  -0.170  -0.035
    1UNL    C17   19  -0.052  -0.266  -0.031
    1UNL    C18   20  -0.072  -0.403  -0.048
    1UNL     O1   21  -0.207  -0.443  -0.066
    1UNL    C19   22  -0.221  -0.585  -0.090
    1UNL    C20   23   0.043  -0.491  -0.036
    1UNL    C21   24   0.167  -0.446  -0.041
    1UNL    C22   25   0.187  -0.311  -0.009
    1UNL    C23   26   0.306  -0.229   0.006
    1UNL    C24   27   0.264  -0.100   0.008
    1UNL     N3   28   0.126  -0.098   0.008
    1UNL    C25   29   0.081  -0.224  -0.012
    1UNL    C26   30   0.351   0.023   0.010
    1UNL    C27   31   0.317   0.101   0.138
    1UNL     O2   32   0.357   0.063   0.246
    1UNL     O3   33   0.240   0.212   0.124
    1UNL    C28   34   0.202   0.253   0.249
    1UNL    C29   35   0.304   0.104  -0.118
    1UNL    C30   36   0.412   0.121  -0.231
    1UNL    C31   37   0.525   0.202  -0.173
    1UNL    C32   38   0.574   0.153  -0.028
    1UNL    C33   39   0.536   0.263   0.075
    1UNL    C34   40   0.627   0.386   0.060
    1UNL    C35   41   0.502   0.013  -0.006
    1UNL     N4   42   0.532  -0.073  -0.133
    1UNL    C36   43   0.536  -0.217  -0.111
    1UNL    C37   44   0.451  -0.268   0.009
    1UNL    C38   45   0.463  -0.017  -0.259
    1UNL    C39   46  -0.254  -0.181   0.096
    1UNL    C40   47  -0.387  -0.108   0.090
    1UNL    C41   48  -0.388   0.009   0.194
    1UNL    C42   49  -0.516   0.044   0.262
    1UNL     O4   50  -0.601   0.131   0.232
    1UNL     O5   51  -0.531  -0.039   0.376
    1UNL    C43   52  -0.665  -0.030   0.432
    1UNL     H1   53  -0.723  -0.248  -0.126
    1UNL     H2   54  -0.711  -0.058  -0.098
    1UNL     H3   55  -0.684  -0.187   0.032
    1UNL     H4   56  -0.518  -0.148  -0.229
    1UNL     H5   57  -0.478  -0.267  -0.099
    1UNL     H6   58  -0.333  -0.038  -0.112
    1UNL     H7   59  -0.512   0.129  -0.150
    1UNL     H8   60  -0.580   0.085   0.016
    1UNL     H9   61  -0.450   0.373   0.071
    1UNL    H10   62  -0.453   0.356  -0.103
    1UNL    H11   63  -0.297   0.355  -0.032
    1UNL    H12   64  -0.340   0.233   0.190
    1UNL    H13   65  -0.126   0.237   0.123
    1UNL    H14   66  -0.124   0.071   0.178
    1UNL    H15   67  -0.038  -0.091  -0.277
    1UNL    H16   68   0.058   0.075  -0.424
    1UNL    H17   69   0.137   0.317  -0.442
    1UNL    H18   70   0.081   0.475  -0.270
    1UNL    H19   71  -0.044   0.402  -0.063
    1UNL    H20   72  -0.234  -0.212  -0.107
    1UNL    H21   73  -0.232  -0.638   0.011
    1UNL    H22   74  -0.312  -0.608  -0.151
    1UNL    H23   75  -0.136  -0.624  -0.156
    1UNL    H24   76   0.027  -0.590  -0.065
    1UNL    H25   77   0.251  -0.505  -0.049
    1UNL    H26   78   0.073  -0.013   0.026
    1UNL    H27   79   0.280   0.220   0.315
    1UNL    H28   80   0.202   0.364   0.260
    1UNL    H29   81   0.111   0.202   0.281
    1UNL    H30   82   0.206   0.058  -0.168
    1UNL    H31   83   0.264   0.201  -0.089
    1UNL    H32   84   0.379   0.156  -0.322
    1UNL    H33   85   0.620   0.207  -0.237
    1UNL    H34   86   0.482   0.301  -0.156
    1UNL    H35   87   0.679   0.138  -0.023
    1UNL    H36   88   0.544   0.228   0.180
    1UNL    H37   89   0.433   0.280   0.060
    1UNL    H38   90   0.721   0.332   0.079
    1UNL    H39   91   0.640   0.434  -0.033
    1UNL    H40   92   0.615   0.465   0.137
    1UNL    H41   93   0.543  -0.034   0.088
    1UNL    H42   94   0.522  -0.275  -0.203
    1UNL    H43   95   0.639  -0.243  -0.079
    1UNL    H44   96   0.468  -0.367   0.044
    1UNL    H45   97   0.499  -0.215   0.089
    1UNL    H46   98   0.538  -0.014  -0.342
    1UNL    H47   99   0.383  -0.087  -0.283
    1UNL    H48  100  -0.270  -0.285   0.130
    1UNL    H49  101  -0.193  -0.138   0.178
    1UNL    H50  102  -0.463  -0.182   0.126
    1UNL    H51  103  -0.307  -0.008   0.280
    1UNL    H52  104  -0.660   0.061   0.490
    1UNL    H53  105  -0.750  -0.024   0.362
    1UNL    H54  106  -0.676  -0.123   0.481
   0.00000   0.00000   0.00000   0.00000   0.00000   0.00000   0.00000   0.00000   0.00000
Generated with MDTraj, t= 22.0
 106
    1UNL     C1    1  -0.670  -0.129  -0.047
    1UNL     C2    2  -0.544  -0.128  -0.123
    1UNL     C3    3  -0.429  -0.045  -0.060
    1UNL     C4    4  -0.478   0.098  -0.058
    1UNL     N1    5  -0.388   0.200   0.014
    1UNL     C5    6  -0.428   0.344   0.019
    1UNL     C6    7  -0.318   0.145   0.139
    1UNL     C7    8  -0.171   0.127   0.109
    1UNL     C8    9  -0.132   0.082  -0.033
    1UNL     C9   10  -0.121  -0.047  -0.093
    1UNL     N2   11  -0.051  -0.042  -0.206
    1UNL    C10   12  -0.012   0.092  -0.228
    1UNL    C11   13   0.045   0.162  -0.336
    1UNL    C12   14   0.055   0.297  -0.322
    1UNL    C13   15   0.019   0.366  -0.205
    1UNL    C14   16  -0.039   0.300  -0.104
    1UNL    C15   17  -0.060   0.166  -0.118
    1UNL    C16   18  -0.158  -0.186  -0.047
    1UNL    C17   19  -0.038  -0.273  -0.027
    1UNL    C18   20  -0.065  -0.413  -0.032
    1UNL     O1   21  -0.197  -0.449  -0.056
    1UNL    C19   22  -0.236  -0.572  -0.008
    1UNL    C20   23   0.049  -0.500  -0.036
    1UNL    C21   24   0.175  -0.459  -0.019
    1UNL    C22   25   0.199  -0.321  -0.010
    1UNL    C23   26   0.313  -0.233  -0.012
    1UNL    C24   27   0.275  -0.099  -0.009
    1UNL     N3   28   0.139  -0.099  -0.002
    1UNL    C25   29   0.090  -0.231  -0.002
    1UNL    C26   30   0.341   0.031  -0.007
    1UNL    C27   31   0.289   0.109   0.119
    1UNL     O2   32   0.329   0.077   0.229
    1UNL     O3   33   0.193   0.204   0.102
    1UNL    C28   34   0.159   0.245   0.230
    1UNL    C29   35   0.296   0.102  -0.139
    1UNL    C30   36   0.418   0.135  -0.240
    1UNL    C31   37   0.516   0.224  -0.163
    1UNL    C32   38   0.572   0.157  -0.029
    1UNL    C33   39   0.583   0.250   0.091
    1UNL    C34   40   0.655   0.385   0.074
    1UNL    C35   41   0.499   0.020  -0.010
    1UNL     N4   42   0.526  -0.069  -0.139
    1UNL    C36   43   0.544  -0.218  -0.126
    1UNL    C37   44   0.453  -0.287  -0.028
    1UNL    C38   45   0.480   0.001  -0.269
    1UNL    C39   46  -0.239  -0.176   0.084
    1UNL    C40   47  -0.379  -0.103   0.077
    1UNL    C41   48  -0.384   0.006   0.183
    1UNL    C42   49  -0.514   0.034   0.246
    1UNL     O4   50  -0.586   0.117   0.196
    1UNL     O5   51  -0.541  -0.040   0.349
    1UNL    C43   52  -0.671  -0.005   0.396
    1UNL     H1   53  -0.747  -0.200  -0.085
    1UNL     H2   54  -0.710  -0.027  -0.038
    1UNL     H3   55  -0.659  -0.169   0.060
    1UNL     H4   56  -0.566  -0.082  -0.223
    1UNL     H5   57  -0.499  -0.230  -0.147
    1UNL     H6   58  -0.333  -0.037  -0.127
    1UNL     H7   59  -0.498   0.131  -0.162
    1UNL     H8   60  -0.569   0.110   0.005
    1UNL     H9   61  -0.528   0.352   0.054
    1UNL    H10   62  -0.424   0.384  -0.090
    1UNL    H11   63  -0.354   0.400   0.072
    1UNL    H12   64  -0.340   0.222   0.218
    1UNL    H13   65  -0.122   0.222   0.124
    1UNL    H14   66  -0.134   0.056   0.181
    1UNL    H15   67  -0.026  -0.123  -0.263
    1UNL    H16   68   0.079   0.107  -0.428
    1UNL    H17   69   0.101   0.357  -0.403
    1UNL    H18   70   0.023   0.472  -0.203
    1UNL    H19   71  -0.064   0.348  -0.013
    1UNL    H20   72  -0.223  -0.234  -0.117
    1UNL    H21   73  -0.150  -0.605   0.064
    1UNL    H22   74  -0.333  -0.566   0.052
    1UNL    H23   75  -0.250  -0.635  -0.101
    1UNL    H24   76   0.025  -0.608  -0.047
    1UNL    H25   77   0.263  -0.526  -0.022
    1UNL    H26   78   0.085  -0.024  -0.042
    1UNL    H27   79   0.192   0.347   0.239
    1UNL    H28   80   0.046   0.252   0.252
    1UNL    H29   81   0.213   0.191   0.308
    1UNL    H30   82   0.224   0.034  -0.184
    1UNL    H31   83   0.231   0.191  -0.126
    1UNL    H32   84   0.391   0.179  -0.329
    1UNL    H33   85   0.608   0.237  -0.227
    1UNL    H34   86   0.474   0.324  -0.145
    1UNL    H35   87   0.673   0.124  -0.048
    1UNL    H36   88   0.603   0.194   0.187
    1UNL    H37   89   0.484   0.286   0.097
    1UNL    H38   90   0.755   0.361   0.045
    1UNL    H39   91   0.618   0.461   0.002
    1UNL    H40   92   0.654   0.438   0.170
    1UNL    H41   93   0.544  -0.030   0.082
    1UNL    H42   94   0.538  -0.272  -0.222
    1UNL    H43   95   0.650  -0.235  -0.101
    1UNL    H44   96   0.453  -0.390  -0.044
    1UNL    H45   97   0.490  -0.288   0.074
    1UNL    H46   98   0.575   0.005  -0.327
    1UNL    H47   99   0.410  -0.065  -0.317
    1UNL    H48  100  -0.254  -0.273   0.132
    1UNL    H49  101  -0.181  -0.121   0.160
    1UNL    H50  102  -0.456  -0.178   0.107
    1UNL    H51  103  -0.311  -0.026   0.272
    1UNL    H52  104  -0.653   0.095   0.437
    1UNL    H53  105  -0.757  -0.002   0.324
    1UNL    H54  106  -0.691  -0.080   0.469
   0.00000   0.00000   0.00000   0.00000   0.00000   0.00000   0.00000   0.00000   0.00000
Generated with MDTraj, t= 23.0
 106
    1UNL     C1    1  -0.682  -0.120  -0.042
    1UNL     C2    2  -0.557  -0.120  -0.129
    1UNL     C3    3  -0.430  -0.049  -0.067
    1UNL     C4    4  -0.452   0.101  -0.069
    1UNL     N1    5  -0.364   0.188   0.016
    1UNL     C5    6  -0.421   0.324   0.038
    1UNL     C6    7  -0.299   0.135   0.148
    1UNL     C7    8  -0.160   0.098   0.119
    1UNL     C8    9  -0.124   0.071  -0.023
    1UNL     C9   10  -0.132  -0.044  -0.097
    1UNL     N2   11  -0.091  -0.012  -0.227
    1UNL    C10   12  -0.043   0.119  -0.232
    1UNL    C11   13   0.016   0.181  -0.341
    1UNL    C12   14   0.051   0.312  -0.317
    1UNL    C13   15   0.032   0.376  -0.195
    1UNL    C14   16  -0.023   0.314  -0.089
    1UNL    C15   17  -0.067   0.175  -0.107
    1UNL    C16   18  -0.171  -0.183  -0.057
    1UNL    C17   19  -0.049  -0.275  -0.030
    1UNL    C18   20  -0.056  -0.416  -0.029
    1UNL     O1   21  -0.182  -0.489  -0.026
    1UNL    C19   22  -0.194  -0.581   0.074
    1UNL    C20   23   0.058  -0.503  -0.030
    1UNL    C21   24   0.182  -0.455  -0.026
    1UNL    C22   25   0.193  -0.311  -0.016
    1UNL    C23   26   0.311  -0.234  -0.010
    1UNL    C24   27   0.269  -0.100  -0.018
    1UNL     N3   28   0.133  -0.096  -0.030
    1UNL    C25   29   0.079  -0.227  -0.020
    1UNL    C26   30   0.345   0.032  -0.015
    1UNL    C27   31   0.298   0.106   0.112
    1UNL     O2   32   0.368   0.113   0.210
    1UNL     O3   33   0.184   0.176   0.088
    1UNL    C28   34   0.167   0.262   0.195
    1UNL    C29   35   0.302   0.099  -0.145
    1UNL    C30   36   0.423   0.141  -0.234
    1UNL    C31   37   0.515   0.230  -0.147
    1UNL    C32   38   0.584   0.150  -0.032
    1UNL    C33   39   0.588   0.233   0.105
    1UNL    C34   40   0.685   0.354   0.117
    1UNL    C35   41   0.504   0.014  -0.016
    1UNL     N4   42   0.528  -0.064  -0.144
    1UNL    C36   43   0.526  -0.213  -0.134
    1UNL    C37   44   0.452  -0.280  -0.021
    1UNL    C38   45   0.493   0.010  -0.273
    1UNL    C39   46  -0.268  -0.201   0.069
    1UNL    C40   47  -0.391  -0.107   0.076
    1UNL    C41   48  -0.385   0.007   0.189
    1UNL    C42   49  -0.526   0.040   0.233
    1UNL     O4   50  -0.594   0.125   0.181
    1UNL     O5   51  -0.566  -0.036   0.345
    1UNL    C43   52  -0.700  -0.004   0.377
    1UNL     H1   53  -0.770  -0.177  -0.077
    1UNL     H2   54  -0.706  -0.016  -0.018
    1UNL     H3   55  -0.660  -0.173   0.060
    1UNL     H4   56  -0.585  -0.079  -0.230
    1UNL     H5   57  -0.535  -0.230  -0.151
    1UNL     H6   58  -0.348  -0.066  -0.143
    1UNL     H7   59  -0.446   0.146  -0.170
    1UNL     H8   60  -0.555   0.114  -0.026
    1UNL     H9   61  -0.511   0.316   0.094
    1UNL    H10   62  -0.448   0.366  -0.066
    1UNL    H11   63  -0.347   0.394   0.075
    1UNL    H12   64  -0.327   0.212   0.222
    1UNL    H13   65  -0.103   0.186   0.151
    1UNL    H14   66  -0.137   0.011   0.180
    1UNL    H15   67  -0.089  -0.092  -0.290
    1UNL    H16   68   0.045   0.129  -0.424
    1UNL    H17   69   0.082   0.365  -0.401
    1UNL    H18   70   0.061   0.481  -0.186
    1UNL    H19   71  -0.046   0.374  -0.001
    1UNL    H20   72  -0.224  -0.234  -0.133
    1UNL    H21   73  -0.124  -0.540   0.160
    1UNL    H22   74  -0.303  -0.591   0.113
    1UNL    H23   75  -0.159  -0.677   0.027
    1UNL    H24   76   0.043  -0.605  -0.051
    1UNL    H25   77   0.273  -0.512  -0.008
    1UNL    H26   78   0.076  -0.014  -0.031
    1UNL    H27   79   0.094   0.341   0.177
    1UNL    H28   80   0.133   0.205   0.292
    1UNL    H29   81   0.264   0.310   0.210
    1UNL    H30   82   0.242   0.043  -0.207
    1UNL    H31   83   0.228   0.180  -0.113
    1UNL    H32   84   0.393   0.195  -0.316
    1UNL    H33   85   0.586   0.285  -0.212
    1UNL    H34   86   0.456   0.315  -0.102
    1UNL    H35   87   0.688   0.134  -0.066
    1UNL    H36   88   0.622   0.165   0.187
    1UNL    H37   89   0.490   0.262   0.129
    1UNL    H38   90   0.781   0.306   0.116
    1UNL    H39   91   0.697   0.430   0.033
    1UNL    H40   92   0.677   0.401   0.215
    1UNL    H41   93   0.539  -0.046   0.075
    1UNL    H42   94   0.486  -0.248  -0.231
    1UNL    H43   95   0.629  -0.247  -0.135
    1UNL    H44   96   0.450  -0.384  -0.020
    1UNL    H45   97   0.504  -0.265   0.073
    1UNL    H46   98   0.591   0.032  -0.318
    1UNL    H47   99   0.441  -0.060  -0.337
    1UNL    H48  100  -0.289  -0.310   0.073
    1UNL    H49  101  -0.215  -0.188   0.165
    1UNL    H50  102  -0.481  -0.170   0.099
    1UNL    H51  103  -0.327  -0.036   0.282
    1UNL    H52  104  -0.707   0.104   0.354
    1UNL    H53  105  -0.776  -0.065   0.318
    1UNL    H54  106  -0.714  -0.022   0.483
   0.00000   0.00000   0.00000   0.00000   0.00000   0.00000   0.00000   0.00000   0.00000
Generated with MDTraj, t= 24.0
 106
    1UNL     C1    1  -0.696  -0.105  -0.055
    1UNL     C2    2  -0.566  -0.120  -0.131
    1UNL     C3    3  -0.444  -0.048  -0.071
    1UNL     C4    4  -0.462   0.111  -0.058
    1UNL     N1    5  -0.352   0.174   0.013
    1UNL     C5    6  -0.366   0.320   0.028
    1UNL     C6    7  -0.305   0.106   0.142
    1UNL     C7    8  -0.152   0.074   0.122
    1UNL     C8    9  -0.128   0.064  -0.026
    1UNL     C9   10  -0.139  -0.053  -0.101
    1UNL     N2   11  -0.108  -0.023  -0.230
    1UNL    C10   12  -0.068   0.114  -0.239
    1UNL    C11   13  -0.012   0.191  -0.336
    1UNL    C12   14   0.022   0.317  -0.317
    1UNL    C13   15   0.016   0.370  -0.190
    1UNL    C14   16  -0.038   0.298  -0.085
    1UNL    C15   17  -0.083   0.170  -0.110
    1UNL    C16   18  -0.172  -0.198  -0.059
    1UNL    C17   19  -0.044  -0.273  -0.027
    1UNL    C18   20  -0.056  -0.415  -0.006
    1UNL     O1   21  -0.187  -0.467   0.005
    1UNL    C19   22  -0.208  -0.553   0.118
    1UNL    C20   23   0.065  -0.493  -0.009
    1UNL    C21   24   0.187  -0.447  -0.041
    1UNL    C22   25   0.200  -0.302  -0.033
    1UNL    C23   26   0.313  -0.216  -0.023
    1UNL    C24   27   0.267  -0.082  -0.018
    1UNL     N3   28   0.127  -0.087  -0.028
    1UNL    C25   29   0.086  -0.220  -0.030
    1UNL    C26   30   0.350   0.045  -0.017
    1UNL    C27   31   0.307   0.123   0.106
    1UNL     O2   32   0.363   0.095   0.210
    1UNL     O3   33   0.202   0.219   0.088
    1UNL    C28   34   0.188   0.270   0.218
    1UNL    C29   35   0.323   0.124  -0.153
    1UNL    C30   36   0.459   0.150  -0.230
    1UNL    C31   37   0.565   0.222  -0.147
    1UNL    C32   38   0.596   0.140  -0.024
    1UNL    C33   39   0.593   0.225   0.107
    1UNL    C34   40   0.717   0.315   0.110
    1UNL    C35   41   0.502   0.018  -0.016
    1UNL     N4   42   0.534  -0.063  -0.143
    1UNL    C36   43   0.518  -0.212  -0.158
    1UNL    C37   44   0.455  -0.263  -0.030
    1UNL    C38   45   0.519   0.013  -0.268
    1UNL    C39   46  -0.276  -0.206   0.066
    1UNL    C40   47  -0.402  -0.114   0.068
    1UNL    C41   48  -0.402  -0.011   0.186
    1UNL    C42   49  -0.543   0.023   0.231
    1UNL     O4   50  -0.613   0.099   0.170
    1UNL     O5   51  -0.594  -0.052   0.337
    1UNL    C43   52  -0.714  -0.003   0.375
    1UNL     H1   53  -0.776  -0.177  -0.082
    1UNL     H2   54  -0.730   0.000  -0.060
    1UNL     H3   55  -0.680  -0.129   0.056
    1UNL     H4   56  -0.586  -0.088  -0.237
    1UNL     H5   57  -0.552  -0.232  -0.142
    1UNL     H6   58  -0.365  -0.064  -0.139
    1UNL     H7   59  -0.465   0.153  -0.159
    1UNL     H8   60  -0.553   0.143  -0.003
    1UNL     H9   61  -0.461   0.333   0.078
    1UNL    H10   62  -0.361   0.375  -0.067
    1UNL    H11   63  -0.284   0.363   0.090
    1UNL    H12   64  -0.317   0.179   0.222
    1UNL    H13   65  -0.091   0.154   0.165
    1UNL    H14   66  -0.126  -0.016   0.180
    1UNL    H15   67  -0.088  -0.092  -0.303
    1UNL    H16   68   0.002   0.150  -0.439
    1UNL    H17   69   0.072   0.380  -0.394
    1UNL    H18   70   0.043   0.474  -0.183
    1UNL    H19   71  -0.053   0.336   0.013
    1UNL    H20   72  -0.214  -0.248  -0.142
    1UNL    H21   73  -0.130  -0.513   0.193
    1UNL    H22   74  -0.313  -0.541   0.167
    1UNL    H23   75  -0.189  -0.656   0.085
    1UNL    H24   76   0.046  -0.600  -0.020
    1UNL    H25   77   0.268  -0.512  -0.062
    1UNL    H26   78   0.071  -0.003  -0.036
    1UNL    H27   79   0.220   0.204   0.300
    1UNL    H28   80   0.252   0.367   0.230
    1UNL    H29   81   0.083   0.290   0.232
    1UNL    H30   82   0.259   0.066  -0.208
    1UNL    H31   83   0.264   0.219  -0.143
    1UNL    H32   84   0.441   0.216  -0.310
    1UNL    H33   85   0.653   0.254  -0.207
    1UNL    H34   86   0.527   0.327  -0.124
    1UNL    H35   87   0.702   0.107  -0.035
    1UNL    H36   88   0.579   0.157   0.194
    1UNL    H37   89   0.508   0.286   0.108
    1UNL    H38   90   0.816   0.275   0.094
    1UNL    H39   91   0.713   0.390   0.023
    1UNL    H40   92   0.732   0.355   0.208
    1UNL    H41   93   0.523  -0.043   0.078
    1UNL    H42   94   0.449  -0.240  -0.241
    1UNL    H43   95   0.612  -0.264  -0.178
    1UNL    H44   96   0.457  -0.366  -0.026
    1UNL    H45   97   0.509  -0.235   0.060
    1UNL    H46   98   0.623   0.012  -0.299
    1UNL    H47   99   0.462  -0.046  -0.339
    1UNL    H48  100  -0.314  -0.310   0.071
    1UNL    H49  101  -0.216  -0.208   0.159
    1UNL    H50  102  -0.497  -0.172   0.085
    1UNL    H51  103  -0.339  -0.060   0.272
    1UNL    H52  104  -0.701   0.096   0.423
    1UNL    H53  105  -0.778  -0.002   0.280
    1UNL    H54  106  -0.753  -0.068   0.452
   0.00000   0.00000   0.00000   0.00000   0.00000   0.00000   0.00000   0.00000   0.00000
Generated with MDTraj, t= 25.0
 106
    1UNL     C1    1  -0.715  -0.085  -0.080
    1UNL     C2    2  -0.578  -0.114  -0.146
    1UNL     C3    3  -0.453  -0.052  -0.085
    1UNL     C4    4  -0.478   0.104  -0.074
    1UNL     N1    5  -0.365   0.175  -0.006
    1UNL     C5    6  -0.388   0.324   0.001
    1UNL     C6    7  -0.327   0.115   0.126
    1UNL     C7    8  -0.173   0.100   0.135
    1UNL     C8    9  -0.130   0.064  -0.001
    1UNL     C9   10  -0.146  -0.049  -0.077
    1UNL     N2   11  -0.105  -0.026  -0.207
    1UNL    C10   12  -0.071   0.102  -0.222
    1UNL    C11   13  -0.040   0.186  -0.330
    1UNL    C12   14  -0.010   0.320  -0.308
    1UNL    C13   15  -0.010   0.367  -0.180
    1UNL    C14   16  -0.036   0.296  -0.071
    1UNL    C15   17  -0.079   0.162  -0.095
    1UNL    C16   18  -0.180  -0.187  -0.051
    1UNL    C17   19  -0.047  -0.271  -0.032
    1UNL    C18   20  -0.057  -0.404   0.000
    1UNL     O1   21  -0.185  -0.457   0.005
    1UNL    C19   22  -0.207  -0.535   0.120
    1UNL    C20   23   0.064  -0.482   0.023
    1UNL    C21   24   0.192  -0.429   0.018
    1UNL    C22   25   0.202  -0.297  -0.029
    1UNL    C23   26   0.319  -0.216  -0.031
    1UNL    C24   27   0.272  -0.088  -0.036
    1UNL     N3   28   0.132  -0.078  -0.038
    1UNL    C25   29   0.085  -0.212  -0.035
    1UNL    C26   30   0.360   0.040  -0.032
    1UNL    C27   31   0.320   0.111   0.100
    1UNL     O2   32   0.344   0.054   0.204
    1UNL     O3   33   0.256   0.224   0.081
    1UNL    C28   34   0.220   0.270   0.205
    1UNL    C29   35   0.328   0.136  -0.154
    1UNL    C30   36   0.455   0.162  -0.235
    1UNL    C31   37   0.564   0.227  -0.142
    1UNL    C32   38   0.602   0.132  -0.021
    1UNL    C33   39   0.611   0.201   0.111
    1UNL    C34   40   0.721   0.306   0.119
    1UNL    C35   41   0.506   0.010  -0.023
    1UNL     N4   42   0.556  -0.055  -0.150
    1UNL    C36   43   0.550  -0.205  -0.150
    1UNL    C37   44   0.464  -0.270  -0.032
    1UNL    C38   45   0.515   0.020  -0.277
    1UNL    C39   46  -0.291  -0.211   0.050
    1UNL    C40   47  -0.411  -0.117   0.049
    1UNL    C41   48  -0.399  -0.019   0.171
    1UNL    C42   49  -0.535   0.013   0.232
    1UNL     O4   50  -0.602   0.104   0.186
    1UNL     O5   51  -0.574  -0.071   0.338
    1UNL    C43   52  -0.701  -0.030   0.378
    1UNL     H1   53  -0.806  -0.129  -0.126
    1UNL     H2   54  -0.738   0.025  -0.068
    1UNL     H3   55  -0.727  -0.127   0.020
    1UNL     H4   56  -0.582  -0.095  -0.257
    1UNL     H5   57  -0.560  -0.226  -0.138
    1UNL     H6   58  -0.376  -0.064  -0.150
    1UNL     H7   59  -0.492   0.159  -0.170
    1UNL     H8   60  -0.568   0.121  -0.015
    1UNL     H9   61  -0.474   0.336   0.073
    1UNL    H10   62  -0.416   0.359  -0.092
    1UNL    H11   63  -0.299   0.389   0.029
    1UNL    H12   64  -0.348   0.194   0.198
    1UNL    H13   65  -0.129   0.196   0.169
    1UNL    H14   66  -0.143   0.027   0.213
    1UNL    H15   67  -0.108  -0.089  -0.286
    1UNL    H16   68  -0.038   0.143  -0.427
    1UNL    H17   69   0.027   0.375  -0.390
    1UNL    H18   70   0.012   0.471  -0.162
    1UNL    H19   71  -0.045   0.343   0.026
    1UNL    H20   72  -0.218  -0.226  -0.144
    1UNL    H21   73  -0.113  -0.537   0.179
    1UNL    H22   74  -0.273  -0.476   0.191
    1UNL    H23   75  -0.244  -0.637   0.095
    1UNL    H24   76   0.045  -0.578   0.068
    1UNL    H25   77   0.282  -0.493   0.033
    1UNL    H26   78   0.084  -0.008  -0.097
    1UNL    H27   79   0.270   0.361   0.237
    1UNL    H28   80   0.112   0.302   0.191
    1UNL    H29   81   0.232   0.191   0.275
    1UNL    H30   82   0.249   0.103  -0.219
    1UNL    H31   83   0.293   0.228  -0.109
    1UNL    H32   84   0.444   0.217  -0.327
    1UNL    H33   85   0.642   0.263  -0.211
    1UNL    H34   86   0.531   0.329  -0.100
    1UNL    H35   87   0.705   0.091  -0.038
    1UNL    H36   88   0.621   0.123   0.189
    1UNL    H37   89   0.519   0.248   0.134
    1UNL    H38   90   0.822   0.286   0.087
    1UNL    H39   91   0.691   0.388   0.043
    1UNL    H40   92   0.731   0.337   0.220
    1UNL    H41   93   0.519  -0.066   0.061
    1UNL    H42   94   0.509  -0.249  -0.245
    1UNL    H43   95   0.650  -0.247  -0.139
    1UNL    H44   96   0.458  -0.374  -0.049
    1UNL    H45   97   0.514  -0.255   0.061
    1UNL    H46   98   0.594   0.021  -0.351
    1UNL    H47   99   0.440  -0.047  -0.319
    1UNL    H48  100  -0.330  -0.315   0.053
    1UNL    H49  101  -0.253  -0.196   0.151
    1UNL    H50  102  -0.505  -0.163   0.087
    1UNL    H51  103  -0.333  -0.075   0.246
    1UNL    H52  104  -0.715   0.035   0.465
    1UNL    H53  105  -0.738   0.014   0.282
    1UNL    H54  106  -0.768  -0.112   0.395
   0.00000   0.00000   0.00000   0.00000   0.00000   0.00000   0.00000   0.00000   0.00000
Generated with MDTraj, t= 26.0
 106
    1UNL     C1    1  -0.698  -0.115  -0.093
    1UNL     C2    2  -0.554  -0.140  -0.155
    1UNL     C3    3  -0.448  -0.054  -0.087
    1UNL     C4    4  -0.484   0.098  -0.071
    1UNL     N1    5  -0.384   0.175  -0.004
    1UNL     C5    6  -0.397   0.324  -0.001
    1UNL     C6    7  -0.337   0.124   0.130
    1UNL     C7    8  -0.176   0.103   0.121
    1UNL     C8    9  -0.134   0.082  -0.018
    1UNL     C9   10  -0.128  -0.031  -0.100
    1UNL     N2   11  -0.092   0.007  -0.227
    1UNL    C10   12  -0.062   0.143  -0.233
    1UNL    C11   13  -0.030   0.231  -0.338
    1UNL    C12   14   0.005   0.358  -0.310
    1UNL    C13   15  -0.005   0.406  -0.180
    1UNL    C14   16  -0.057   0.326  -0.079
    1UNL    C15   17  -0.087   0.192  -0.102
    1UNL    C16   18  -0.171  -0.172  -0.059
    1UNL    C17   19  -0.052  -0.268  -0.019
    1UNL    C18   20  -0.066  -0.405   0.009
    1UNL     O1   21  -0.196  -0.455   0.043
    1UNL    C19   22  -0.188  -0.573   0.130
    1UNL    C20   23   0.046  -0.493   0.033
    1UNL    C21   24   0.175  -0.450   0.029
    1UNL    C22   25   0.198  -0.310   0.011
    1UNL    C23   26   0.315  -0.228  -0.012
    1UNL    C24   27   0.274  -0.099  -0.031
    1UNL     N3   28   0.135  -0.094  -0.029
    1UNL    C25   29   0.086  -0.224  -0.018
    1UNL    C26   30   0.358   0.030  -0.035
    1UNL    C27   31   0.319   0.104   0.089
    1UNL     O2   32   0.328   0.047   0.196
    1UNL     O3   33   0.273   0.232   0.081
    1UNL    C28   34   0.254   0.274   0.214
    1UNL    C29   35   0.331   0.112  -0.162
    1UNL    C30   36   0.459   0.142  -0.239
    1UNL    C31   37   0.559   0.218  -0.155
    1UNL    C32   38   0.597   0.138  -0.024
    1UNL    C33   39   0.581   0.218   0.111
    1UNL    C34   40   0.703   0.314   0.128
    1UNL    C35   41   0.515   0.005  -0.025
    1UNL     N4   42   0.557  -0.070  -0.149
    1UNL    C36   43   0.523  -0.211  -0.173
    1UNL    C37   44   0.451  -0.282  -0.058
    1UNL    C38   45   0.537   0.009  -0.275
    1UNL    C39   46  -0.272  -0.192   0.061
    1UNL    C40   47  -0.406  -0.111   0.055
    1UNL    C41   48  -0.409  -0.007   0.172
    1UNL    C42   49  -0.541   0.010   0.235
    1UNL     O4   50  -0.599   0.112   0.213
    1UNL     O5   51  -0.582  -0.093   0.313
    1UNL    C43   52  -0.692  -0.057   0.389
    1UNL     H1   53  -0.778  -0.185  -0.127
    1UNL     H2   54  -0.726  -0.008  -0.117
    1UNL     H3   55  -0.697  -0.123   0.012
    1UNL     H4   56  -0.560  -0.124  -0.267
    1UNL     H5   57  -0.524  -0.247  -0.136
    1UNL     H6   58  -0.370  -0.061  -0.154
    1UNL     H7   59  -0.520   0.148  -0.163
    1UNL     H8   60  -0.566   0.109   0.001
    1UNL     H9   61  -0.495   0.350   0.052
    1UNL    H10   62  -0.395   0.364  -0.097
    1UNL    H11   63  -0.311   0.373   0.049
    1UNL    H12   64  -0.367   0.201   0.202
    1UNL    H13   65  -0.121   0.190   0.159
    1UNL    H14   66  -0.151   0.020   0.191
    1UNL    H15   67  -0.084  -0.049  -0.311
    1UNL    H16   68  -0.004   0.195  -0.435
    1UNL    H17   69   0.047   0.425  -0.386
    1UNL    H18   70   0.021   0.508  -0.152
    1UNL    H19   71  -0.076   0.363   0.020
    1UNL    H20   72  -0.206  -0.222  -0.151
    1UNL    H21   73  -0.137  -0.550   0.221
    1UNL    H22   74  -0.288  -0.593   0.165
    1UNL    H23   75  -0.143  -0.661   0.081
    1UNL    H24   76   0.033  -0.598   0.024
    1UNL    H25   77   0.248  -0.523   0.036
    1UNL    H26   78   0.082  -0.007  -0.030
    1UNL    H27   79   0.192   0.362   0.220
    1UNL    H28   80   0.184   0.199   0.259
    1UNL    H29   81   0.347   0.281   0.261
    1UNL    H30   82   0.256   0.055  -0.222
    1UNL    H31   83   0.288   0.204  -0.139
    1UNL    H32   84   0.420   0.201  -0.325
    1UNL    H33   85   0.649   0.250  -0.207
    1UNL    H34   86   0.503   0.316  -0.131
    1UNL    H35   87   0.705   0.103  -0.026
    1UNL    H36   88   0.595   0.153   0.201
    1UNL    H37   89   0.484   0.257   0.123
    1UNL    H38   90   0.799   0.271   0.155
    1UNL    H39   91   0.719   0.353   0.022
    1UNL    H40   92   0.685   0.384   0.207
    1UNL    H41   93   0.549  -0.063   0.060
    1UNL    H42   94   0.448  -0.215  -0.258
    1UNL    H43   95   0.610  -0.267  -0.202
    1UNL    H44   96   0.442  -0.387  -0.084
    1UNL    H45   97   0.517  -0.271   0.024
    1UNL    H46   98   0.635   0.031  -0.311
    1UNL    H47   99   0.492  -0.049  -0.356
    1UNL    H48  100  -0.296  -0.301   0.054
    1UNL    H49  101  -0.226  -0.190   0.160
    1UNL    H50  102  -0.487  -0.180   0.086
    1UNL    H51  103  -0.353  -0.065   0.252
    1UNL    H52  104  -0.707   0.043   0.425
    1UNL    H53  105  -0.775  -0.093   0.326
    1UNL    H54  106  -0.694  -0.116   0.477
   0.00000   0.00000   0.00000   0.00000   0.00000   0.00000   0.00000   0.00000   0.00000
Generated with MDTraj, t= 27.0
 106
    1UNL     C1    1  -0.656  -0.174  -0.091
    1UNL     C2    2  -0.526  -0.129  -0.158
    1UNL     C3    3  -0.442  -0.045  -0.067
    1UNL     C4    4  -0.498   0.095  -0.052
    1UNL     N1    5  -0.395   0.185   0.004
    1UNL     C5    6  -0.428   0.329   0.000
    1UNL     C6    7  -0.328   0.138   0.136
    1UNL     C7    8  -0.178   0.115   0.130
    1UNL     C8    9  -0.129   0.084  -0.002
    1UNL     C9   10  -0.128  -0.033  -0.072
    1UNL     N2   11  -0.077  -0.007  -0.199
    1UNL    C10   12  -0.036   0.124  -0.206
    1UNL    C11   13   0.005   0.200  -0.314
    1UNL    C12   14   0.015   0.337  -0.299
    1UNL    C13   15  -0.024   0.407  -0.183
    1UNL    C14   16  -0.074   0.334  -0.076
    1UNL    C15   17  -0.076   0.190  -0.085
    1UNL    C16   18  -0.164  -0.177  -0.040
    1UNL    C17   19  -0.046  -0.262  -0.012
    1UNL    C18   20  -0.066  -0.399   0.005
    1UNL     O1   21  -0.198  -0.444   0.004
    1UNL    C19   22  -0.231  -0.545   0.101
    1UNL    C20   23   0.046  -0.488   0.008
    1UNL    C21   24   0.183  -0.442   0.010
    1UNL    C22   25   0.193  -0.308  -0.022
    1UNL    C23   26   0.317  -0.233  -0.027
    1UNL    C24   27   0.277  -0.097  -0.039
    1UNL     N3   28   0.138  -0.091  -0.052
    1UNL    C25   29   0.086  -0.218  -0.030
    1UNL    C26   30   0.355   0.032  -0.028
    1UNL    C27   31   0.309   0.118   0.091
    1UNL     O2   32   0.324   0.068   0.201
    1UNL     O3   33   0.269   0.243   0.070
    1UNL    C28   34   0.219   0.300   0.187
    1UNL    C29   35   0.328   0.113  -0.163
    1UNL    C30   36   0.456   0.131  -0.247
    1UNL    C31   37   0.558   0.211  -0.162
    1UNL    C32   38   0.598   0.125  -0.032
    1UNL    C33   39   0.603   0.189   0.104
    1UNL    C34   40   0.689   0.311   0.126
    1UNL    C35   41   0.516   0.000  -0.028
    1UNL     N4   42   0.550  -0.077  -0.149
    1UNL    C36   43   0.529  -0.224  -0.154
    1UNL    C37   44   0.458  -0.281  -0.033
    1UNL    C38   45   0.517  -0.007  -0.276
    1UNL    C39   46  -0.271  -0.196   0.075
    1UNL    C40   47  -0.400  -0.103   0.070
    1UNL    C41   48  -0.393   0.007   0.183
    1UNL    C42   49  -0.536   0.026   0.239
    1UNL     O4   50  -0.603   0.127   0.220
    1UNL     O5   51  -0.568  -0.083   0.312
    1UNL    C43   52  -0.710  -0.083   0.352
    1UNL     H1   53  -0.726  -0.226  -0.162
    1UNL     H2   54  -0.708  -0.080  -0.052
    1UNL     H3   55  -0.647  -0.242  -0.012
    1UNL     H4   56  -0.540  -0.061  -0.250
    1UNL     H5   57  -0.470  -0.221  -0.195
    1UNL     H6   58  -0.353  -0.030  -0.131
    1UNL     H7   59  -0.518   0.136  -0.156
    1UNL     H8   60  -0.591   0.098   0.004
    1UNL     H9   61  -0.522   0.340   0.059
    1UNL    H10   62  -0.447   0.355  -0.108
    1UNL    H11   63  -0.352   0.401   0.026
    1UNL    H12   64  -0.351   0.209   0.217
    1UNL    H13   65  -0.121   0.200   0.172
    1UNL    H14   66  -0.142   0.027   0.191
    1UNL    H15   67  -0.063  -0.091  -0.256
    1UNL    H16   68   0.035   0.142  -0.406
    1UNL    H17   69   0.052   0.399  -0.379
    1UNL    H18   70  -0.037   0.513  -0.191
    1UNL    H19   71  -0.111   0.378   0.015
    1UNL    H20   72  -0.210  -0.220  -0.132
    1UNL    H21   73  -0.163  -0.553   0.179
    1UNL    H22   74  -0.319  -0.516   0.148
    1UNL    H23   75  -0.241  -0.640   0.050
    1UNL    H24   76   0.020  -0.593   0.027
    1UNL    H25   77   0.271  -0.509   0.025
    1UNL    H26   78   0.092   0.001  -0.055
    1UNL    H27   79   0.113   0.281   0.200
    1UNL    H28   80   0.264   0.250   0.276
    1UNL    H29   81   0.245   0.401   0.181
    1UNL    H30   82   0.249   0.066  -0.232
    1UNL    H31   83   0.287   0.205  -0.144
    1UNL    H32   84   0.426   0.178  -0.347
    1UNL    H33   85   0.640   0.240  -0.227
    1UNL    H34   86   0.514   0.307  -0.116
    1UNL    H35   87   0.706   0.088  -0.038
    1UNL    H36   88   0.623   0.106   0.173
    1UNL    H37   89   0.507   0.224   0.145
    1UNL    H38   90   0.793   0.310   0.094
    1UNL    H39   91   0.638   0.385   0.058
    1UNL    H40   92   0.686   0.339   0.230
    1UNL    H41   93   0.544  -0.055   0.067
    1UNL    H42   94   0.455  -0.237  -0.241
    1UNL    H43   95   0.618  -0.276  -0.187
    1UNL    H44   96   0.454  -0.390  -0.044
    1UNL    H45   97   0.509  -0.265   0.056
    1UNL    H46   98   0.610   0.007  -0.326
    1UNL    H47   99   0.452  -0.070  -0.340
    1UNL    H48  100  -0.304  -0.303   0.079
    1UNL    H49  101  -0.211  -0.192   0.166
    1UNL    H50  102  -0.479  -0.176   0.091
    1UNL    H51  103  -0.338  -0.045   0.263
    1UNL    H52  104  -0.746   0.014   0.379
    1UNL    H53  105  -0.771  -0.119   0.266
    1UNL    H54  106  -0.735  -0.140   0.438
   0.00000   0.00000   0.00000   0.00000   0.00000   0.00000   0.00000   0.00000   0.00000
Generated with MDTraj, t= 28.0
 106
    1UNL     C1    1  -0.624  -0.192  -0.078
    1UNL     C2    2  -0.496  -0.142  -0.139
    1UNL     C3    3  -0.419  -0.048  -0.051
    1UNL     C4    4  -0.488   0.093  -0.045
    1UNL     N1    5  -0.412   0.192   0.032
    1UNL     C5    6  -0.454   0.329   0.045
    1UNL     C6    7  -0.346   0.137   0.154
    1UNL     C7    8  -0.189   0.125   0.135
    1UNL     C8    9  -0.135   0.098  -0.000
    1UNL     C9   10  -0.124  -0.025  -0.064
    1UNL     N2   11  -0.076  -0.005  -0.192
    1UNL    C10   12  -0.040   0.129  -0.208
    1UNL    C11   13   0.024   0.189  -0.323
    1UNL    C12   14   0.044   0.322  -0.312
    1UNL    C13   15   0.003   0.397  -0.193
    1UNL    C14   16  -0.049   0.333  -0.084
    1UNL    C15   17  -0.080   0.199  -0.095
    1UNL    C16   18  -0.167  -0.166  -0.018
    1UNL    C17   19  -0.049  -0.264  -0.011
    1UNL    C18   20  -0.065  -0.404  -0.023
    1UNL     O1   21  -0.198  -0.453  -0.040
    1UNL    C19   22  -0.242  -0.550   0.054
    1UNL    C20   23   0.043  -0.491  -0.029
    1UNL    C21   24   0.172  -0.445  -0.028
    1UNL    C22   25   0.190  -0.306  -0.019
    1UNL    C23   26   0.310  -0.227  -0.043
    1UNL    C24   27   0.273  -0.097  -0.032
    1UNL     N3   28   0.134  -0.086  -0.012
    1UNL    C25   29   0.084  -0.217  -0.004
    1UNL    C26   30   0.355   0.032  -0.029
    1UNL    C27   31   0.311   0.115   0.088
    1UNL     O2   32   0.332   0.081   0.205
    1UNL     O3   33   0.233   0.218   0.039
    1UNL    C28   34   0.190   0.301   0.148
    1UNL    C29   35   0.329   0.095  -0.181
    1UNL    C30   36   0.464   0.125  -0.247
    1UNL    C31   37   0.559   0.216  -0.158
    1UNL    C32   38   0.602   0.129  -0.030
    1UNL    C33   39   0.613   0.221   0.096
    1UNL    C34   40   0.723   0.319   0.076
    1UNL    C35   41   0.505   0.004  -0.013
    1UNL     N4   42   0.560  -0.084  -0.127
    1UNL    C36   43   0.533  -0.232  -0.134
    1UNL    C37   44   0.444  -0.283  -0.027
    1UNL    C38   45   0.547  -0.014  -0.258
    1UNL    C39   46  -0.249  -0.169   0.115
    1UNL    C40   47  -0.396  -0.103   0.092
    1UNL    C41   48  -0.408   0.007   0.203
    1UNL    C42   49  -0.553   0.017   0.244
    1UNL     O4   50  -0.609   0.123   0.221
    1UNL     O5   51  -0.611  -0.091   0.302
    1UNL    C43   52  -0.743  -0.064   0.341
    1UNL     H1   53  -0.674  -0.270  -0.142
    1UNL     H2   54  -0.694  -0.107  -0.061
    1UNL     H3   55  -0.612  -0.244   0.014
    1UNL     H4   56  -0.513  -0.097  -0.244
    1UNL     H5   57  -0.425  -0.228  -0.160
    1UNL     H6   58  -0.319  -0.022  -0.106
    1UNL     H7   59  -0.497   0.129  -0.152
    1UNL     H8   60  -0.587   0.091  -0.002
    1UNL     H9   61  -0.534   0.336   0.118
    1UNL    H10   62  -0.490   0.358  -0.065
    1UNL    H11   63  -0.373   0.398   0.057
    1UNL    H12   64  -0.357   0.205   0.241
    1UNL    H13   65  -0.144   0.227   0.151
    1UNL    H14   66  -0.128   0.067   0.209
    1UNL    H15   67  -0.069  -0.084  -0.256
    1UNL    H16   68   0.056   0.140  -0.407
    1UNL    H17   69   0.089   0.375  -0.393
    1UNL    H18   70   0.017   0.506  -0.183
    1UNL    H19   71  -0.085   0.387   0.004
    1UNL    H20   72  -0.232  -0.208  -0.099
    1UNL    H21   73  -0.242  -0.527   0.155
    1UNL    H22   74  -0.341  -0.562   0.029
    1UNL    H23   75  -0.191  -0.640   0.036
    1UNL    H24   76   0.037  -0.598  -0.042
    1UNL    H25   77   0.247  -0.519  -0.043
    1UNL    H26   78   0.085   0.003  -0.005
    1UNL    H27   79   0.204   0.252   0.246
    1UNL    H28   80   0.260   0.388   0.155
    1UNL    H29   81   0.091   0.332   0.132
    1UNL    H30   82   0.272   0.023  -0.246
    1UNL    H31   83   0.273   0.186  -0.179
    1UNL    H32   84   0.446   0.184  -0.348
    1UNL    H33   85   0.652   0.240  -0.207
    1UNL    H34   86   0.515   0.319  -0.129
    1UNL    H35   87   0.704   0.081  -0.053
    1UNL    H36   88   0.641   0.167   0.187
    1UNL    H37   89   0.508   0.245   0.124
    1UNL    H38   90   0.825   0.280   0.057
    1UNL    H39   91   0.702   0.383  -0.009
    1UNL    H40   92   0.739   0.386   0.159
    1UNL    H41   93   0.527  -0.044   0.088
    1UNL    H42   94   0.500  -0.260  -0.240
    1UNL    H43   95   0.630  -0.275  -0.123
    1UNL    H44   96   0.443  -0.392  -0.018
    1UNL    H45   97   0.477  -0.257   0.068
    1UNL    H46   98   0.639   0.007  -0.308
    1UNL    H47   99   0.489  -0.080  -0.323
    1UNL    H48  100  -0.267  -0.271   0.156
    1UNL    H49  101  -0.199  -0.124   0.198
    1UNL    H50  102  -0.472  -0.178   0.114
    1UNL    H51  103  -0.370  -0.033   0.298
    1UNL    H52  104  -0.738  -0.007   0.433
    1UNL    H53  105  -0.805  -0.009   0.263
    1UNL    H54  106  -0.790  -0.157   0.371
   0.00000   0.00000   0.00000   0.00000   0.00000   0.00000   0.00000   0.00000   0.00000
Generated with MDTraj, t= 29.0
 106
    1UNL     C1    1  -0.666  -0.182  -0.073
    1UNL     C2    2  -0.520  -0.164  -0.119
    1UNL     C3    3  -0.438  -0.059  -0.040
    1UNL     C4    4  -0.507   0.085  -0.042
    1UNL     N1    5  -0.423   0.185   0.028
    1UNL     C5    6  -0.497   0.316   0.055
    1UNL     C6    7  -0.359   0.140   0.151
    1UNL     C7    8  -0.204   0.141   0.138
    1UNL     C8    9  -0.142   0.098   0.002
    1UNL     C9   10  -0.131  -0.027  -0.066
    1UNL     N2   11  -0.067  -0.010  -0.186
    1UNL    C10   12  -0.038   0.119  -0.208
    1UNL    C11   13   0.040   0.185  -0.308
    1UNL    C12   14   0.056   0.322  -0.300
    1UNL    C13   15   0.010   0.395  -0.187
    1UNL    C14   16  -0.053   0.329  -0.085
    1UNL    C15   17  -0.089   0.193  -0.098
    1UNL    C16   18  -0.161  -0.164  -0.021
    1UNL    C17   19  -0.039  -0.261  -0.024
    1UNL    C18   20  -0.071  -0.389  -0.047
    1UNL     O1   21  -0.204  -0.424  -0.038
    1UNL    C19   22  -0.232  -0.560  -0.005
    1UNL    C20   23   0.037  -0.480  -0.071
    1UNL    C21   24   0.171  -0.445  -0.044
    1UNL    C22   25   0.199  -0.314  -0.009
    1UNL    C23   26   0.318  -0.232   0.006
    1UNL    C24   27   0.281  -0.101  -0.001
    1UNL     N3   28   0.140  -0.095   0.001
    1UNL    C25   29   0.092  -0.220  -0.010
    1UNL    C26   30   0.368   0.022  -0.018
    1UNL    C27   31   0.325   0.135   0.076
    1UNL     O2   32   0.394   0.145   0.176
    1UNL     O3   33   0.220   0.207   0.033
    1UNL    C28   34   0.167   0.293   0.138
    1UNL    C29   35   0.343   0.067  -0.167
    1UNL    C30   36   0.473   0.098  -0.249
    1UNL    C31   37   0.553   0.202  -0.177
    1UNL    C32   38   0.600   0.137  -0.041
    1UNL    C33   39   0.594   0.232   0.083
    1UNL    C34   40   0.712   0.327   0.092
    1UNL    C35   41   0.527   0.004  -0.014
    1UNL     N4   42   0.565  -0.090  -0.128
    1UNL    C36   43   0.534  -0.238  -0.123
    1UNL    C37   44   0.455  -0.284   0.001
    1UNL    C38   45   0.550  -0.030  -0.260
    1UNL    C39   46  -0.242  -0.167   0.107
    1UNL    C40   47  -0.389  -0.109   0.096
    1UNL    C41   48  -0.399   0.002   0.209
    1UNL    C42   49  -0.546   0.031   0.254
    1UNL     O4   50  -0.585   0.147   0.273
    1UNL     O5   51  -0.611  -0.081   0.284
    1UNL    C43   52  -0.744  -0.058   0.310
    1UNL     H1   53  -0.710  -0.276  -0.115
    1UNL     H2   54  -0.725  -0.095  -0.104
    1UNL     H3   55  -0.667  -0.194   0.037
    1UNL     H4   56  -0.523  -0.147  -0.234
    1UNL     H5   57  -0.462  -0.261  -0.113
    1UNL     H6   58  -0.341  -0.036  -0.097
    1UNL     H7   59  -0.533   0.122  -0.144
    1UNL     H8   60  -0.605   0.084   0.009
    1UNL     H9   61  -0.585   0.296   0.115
    1UNL    H10   62  -0.526   0.367  -0.044
    1UNL    H11   63  -0.435   0.396   0.099
    1UNL    H12   64  -0.377   0.214   0.233
    1UNL    H13   65  -0.160   0.239   0.171
    1UNL    H14   66  -0.146   0.073   0.207
    1UNL    H15   67  -0.028  -0.084  -0.245
    1UNL    H16   68   0.074   0.116  -0.391
    1UNL    H17   69   0.121   0.379  -0.367
    1UNL    H18   70   0.020   0.499  -0.168
    1UNL    H19   71  -0.088   0.375   0.004
    1UNL    H20   72  -0.223  -0.214  -0.100
    1UNL    H21   73  -0.320  -0.573   0.049
    1UNL    H22   74  -0.237  -0.614  -0.091
    1UNL    H23   75  -0.153  -0.590   0.056
    1UNL    H24   76   0.015  -0.572  -0.119
    1UNL    H25   77   0.252  -0.514  -0.039
    1UNL    H26   78   0.090  -0.011  -0.026
    1UNL    H27   79   0.221   0.287   0.236
    1UNL    H28   80   0.182   0.400   0.103
    1UNL    H29   81   0.064   0.266   0.152
    1UNL    H30   82   0.284  -0.012  -0.216
    1UNL    H31   83   0.290   0.168  -0.172
    1UNL    H32   84   0.449   0.129  -0.363
    1UNL    H33   85   0.632   0.245  -0.239
    1UNL    H34   86   0.479   0.286  -0.150
    1UNL    H35   87   0.708   0.105  -0.066
    1UNL    H36   88   0.573   0.165   0.167
    1UNL    H37   89   0.504   0.298   0.090
    1UNL    H38   90   0.812   0.279   0.110
    1UNL    H39   91   0.714   0.387   0.004
    1UNL    H40   92   0.692   0.399   0.173
    1UNL    H41   93   0.561  -0.035   0.087
    1UNL    H42   94   0.471  -0.267  -0.216
    1UNL    H43   95   0.631  -0.283  -0.138
    1UNL    H44   96   0.460  -0.393   0.016
    1UNL    H45   97   0.502  -0.253   0.088
    1UNL    H46   98   0.648  -0.018  -0.302
    1UNL    H47   99   0.490  -0.089  -0.329
    1UNL    H48  100  -0.254  -0.270   0.148
    1UNL    H49  101  -0.191  -0.127   0.193
    1UNL    H50  102  -0.462  -0.185   0.127
    1UNL    H51  103  -0.341  -0.025   0.295
    1UNL    H52  104  -0.737  -0.000   0.404
    1UNL    H53  105  -0.798   0.006   0.231
    1UNL    H54  106  -0.795  -0.150   0.341
   0.00000   0.00000   0.00000   0.00000   0.00000   0.00000   0.00000   0.00000   0.00000
Generated with MDTraj, t= 30.0
 106
    1UNL     C1    1  -0.693  -0.173  -0.032
    1UNL     C2    2  -0.557  -0.170  -0.097
    1UNL     C3    3  -0.451  -0.065  -0.040
    1UNL     C4    4  -0.517   0.071  -0.032
    1UNL     N1    5  -0.425   0.175   0.017
    1UNL     C5    6  -0.485   0.318   0.013
    1UNL     C6    7  -0.356   0.142   0.140
    1UNL     C7    8  -0.194   0.139   0.119
    1UNL     C8    9  -0.146   0.109  -0.013
    1UNL     C9   10  -0.123  -0.015  -0.072
    1UNL     N2   11  -0.045  -0.000  -0.183
    1UNL    C10   12  -0.025   0.133  -0.198
    1UNL    C11   13   0.048   0.195  -0.300
    1UNL    C12   14   0.064   0.331  -0.294
    1UNL    C13   15   0.003   0.409  -0.191
    1UNL    C14   16  -0.073   0.350  -0.092
    1UNL    C15   17  -0.088   0.213  -0.099
    1UNL    C16   18  -0.159  -0.163  -0.032
    1UNL    C17   19  -0.042  -0.259  -0.033
    1UNL    C18   20  -0.063  -0.400  -0.042
    1UNL     O1   21  -0.192  -0.435  -0.082
    1UNL    C19   22  -0.214  -0.571  -0.063
    1UNL    C20   23   0.047  -0.488  -0.018
    1UNL    C21   24   0.166  -0.440   0.013
    1UNL    C22   25   0.193  -0.301   0.007
    1UNL    C23   26   0.318  -0.224   0.003
    1UNL    C24   27   0.281  -0.091  -0.012
    1UNL     N3   28   0.143  -0.083   0.001
    1UNL    C25   29   0.089  -0.211  -0.003
    1UNL    C26   30   0.358   0.039  -0.028
    1UNL    C27   31   0.303   0.128   0.085
    1UNL     O2   32   0.355   0.128   0.194
    1UNL     O3   33   0.200   0.207   0.044
    1UNL    C28   34   0.167   0.308   0.138
    1UNL    C29   35   0.342   0.104  -0.167
    1UNL    C30   36   0.471   0.102  -0.254
    1UNL    C31   37   0.577   0.179  -0.171
    1UNL    C32   38   0.617   0.112  -0.033
    1UNL    C33   39   0.624   0.220   0.076
    1UNL    C34   40   0.729   0.327   0.039
    1UNL    C35   41   0.514  -0.002  -0.012
    1UNL     N4   42   0.558  -0.097  -0.125
    1UNL    C36   43   0.557  -0.240  -0.100
    1UNL    C37   44   0.453  -0.287  -0.000
    1UNL    C38   45   0.529  -0.048  -0.264
    1UNL    C39   46  -0.257  -0.180   0.090
    1UNL    C40   47  -0.392  -0.112   0.096
    1UNL    C41   48  -0.394   0.006   0.205
    1UNL    C42   49  -0.529   0.020   0.271
    1UNL     O4   50  -0.552   0.114   0.346
    1UNL     O5   51  -0.627  -0.073   0.237
    1UNL    C43   52  -0.745  -0.058   0.307
    1UNL     H1   53  -0.763  -0.235  -0.090
    1UNL     H2   54  -0.740  -0.077  -0.022
    1UNL     H3   55  -0.688  -0.224   0.072
    1UNL     H4   56  -0.559  -0.150  -0.210
    1UNL     H5   57  -0.518  -0.277  -0.096
    1UNL     H6   58  -0.366  -0.059  -0.107
    1UNL     H7   59  -0.565   0.103  -0.125
    1UNL     H8   60  -0.600   0.074   0.043
    1UNL     H9   61  -0.551   0.327   0.101
    1UNL    H10   62  -0.542   0.346  -0.073
    1UNL    H11   63  -0.403   0.398   0.012
    1UNL    H12   64  -0.377   0.224   0.216
    1UNL    H13   65  -0.152   0.239   0.148
    1UNL    H14   66  -0.142   0.076   0.196
    1UNL    H15   67  -0.012  -0.074  -0.246
    1UNL    H16   68   0.094   0.135  -0.376
    1UNL    H17   69   0.122   0.379  -0.369
    1UNL    H18   70   0.006   0.517  -0.204
    1UNL    H19   71  -0.125   0.393  -0.005
    1UNL    H20   72  -0.214  -0.203  -0.123
    1UNL    H21   73  -0.264  -0.613  -0.147
    1UNL    H22   74  -0.133  -0.631  -0.039
    1UNL    H23   75  -0.288  -0.565   0.011
    1UNL    H24   76   0.040  -0.597  -0.013
    1UNL    H25   77   0.247  -0.513   0.031
    1UNL    H26   78   0.101   0.010  -0.018
    1UNL    H27   79   0.248   0.374   0.179
    1UNL    H28   80   0.095   0.375   0.084
    1UNL    H29   81   0.118   0.256   0.222
    1UNL    H30   82   0.264   0.055  -0.224
    1UNL    H31   83   0.322   0.220  -0.148
    1UNL    H32   84   0.455   0.144  -0.366
    1UNL    H33   85   0.665   0.198  -0.232
    1UNL    H34   86   0.531   0.278  -0.141
    1UNL    H35   87   0.722   0.073  -0.062
    1UNL    H36   88   0.662   0.184   0.171
    1UNL    H37   89   0.523   0.263   0.096
    1UNL    H38   90   0.830   0.280   0.024
    1UNL    H39   91   0.692   0.386  -0.039
    1UNL    H40   92   0.723   0.392   0.129
    1UNL    H41   93   0.529  -0.036   0.095
    1UNL    H42   94   0.547  -0.291  -0.203
    1UNL    H43   95   0.649  -0.274  -0.056
    1UNL    H44   96   0.445  -0.396  -0.012
    1UNL    H45   97   0.494  -0.268   0.096
    1UNL    H46   98   0.621  -0.043  -0.322
    1UNL    H47   99   0.465  -0.112  -0.320
    1UNL    H48  100  -0.259  -0.289   0.115
    1UNL    H49  101  -0.198  -0.159   0.178
    1UNL    H50  102  -0.464  -0.189   0.127
    1UNL    H51  103  -0.322  -0.014   0.279
    1UNL    H52  104  -0.709  -0.020   0.405
    1UNL    H53  105  -0.818   0.015   0.260
    1UNL    H54  106  -0.783  -0.156   0.333
   0.00000   0.00000   0.00000   0.00000   0.00000   0.00000   0.00000   0.00000   0.00000
Generated with MDTraj, t= 31.0
 106
    1UNL     C1    1  -0.673  -0.205  -0.010
    1UNL     C2    2  -0.558  -0.182  -0.101
    1UNL     C3    3  -0.453  -0.072  -0.047
    1UNL     C4    4  -0.511   0.068  -0.039
    1UNL     N1    5  -0.409   0.167   0.005
    1UNL     C5    6  -0.430   0.307  -0.016
    1UNL     C6    7  -0.335   0.133   0.136
    1UNL     C7    8  -0.182   0.118   0.118
    1UNL     C8    9  -0.144   0.097  -0.018
    1UNL     C9   10  -0.137  -0.020  -0.093
    1UNL     N2   11  -0.069   0.007  -0.213
    1UNL    C10   12  -0.036   0.139  -0.221
    1UNL    C11   13   0.025   0.215  -0.320
    1UNL    C12   14   0.048   0.347  -0.303
    1UNL    C13   15  -0.003   0.412  -0.185
    1UNL    C14   16  -0.077   0.341  -0.089
    1UNL    C15   17  -0.093   0.199  -0.104
    1UNL    C16   18  -0.174  -0.161  -0.060
    1UNL    C17   19  -0.045  -0.247  -0.054
    1UNL    C18   20  -0.078  -0.380  -0.043
    1UNL     O1   21  -0.216  -0.418  -0.052
    1UNL    C19   22  -0.220  -0.553  -0.094
    1UNL    C20   23   0.027  -0.469  -0.003
    1UNL    C21   24   0.160  -0.430   0.019
    1UNL    C22   25   0.187  -0.291   0.010
    1UNL    C23   26   0.304  -0.215   0.026
    1UNL    C24   27   0.271  -0.083   0.005
    1UNL     N3   28   0.140  -0.080  -0.025
    1UNL    C25   29   0.082  -0.207  -0.026
    1UNL    C26   30   0.363   0.031  -0.018
    1UNL    C27   31   0.328   0.129   0.094
    1UNL     O2   32   0.385   0.119   0.200
    1UNL     O3   33   0.235   0.224   0.058
    1UNL    C28   34   0.179   0.295   0.169
    1UNL    C29   35   0.333   0.094  -0.165
    1UNL    C30   36   0.467   0.086  -0.255
    1UNL    C31   37   0.572   0.186  -0.195
    1UNL    C32   38   0.614   0.129  -0.050
    1UNL    C33   39   0.620   0.237   0.065
    1UNL    C34   40   0.740   0.334   0.054
    1UNL    C35   41   0.521   0.004  -0.012
    1UNL     N4   42   0.561  -0.108  -0.115
    1UNL    C36   43   0.528  -0.249  -0.072
    1UNL    C37   44   0.442  -0.258   0.059
    1UNL    C38   45   0.525  -0.064  -0.254
    1UNL    C39   46  -0.251  -0.183   0.073
    1UNL    C40   47  -0.390  -0.121   0.094
    1UNL    C41   48  -0.392   0.000   0.200
    1UNL    C42   49  -0.522   0.008   0.281
    1UNL     O4   50  -0.525   0.070   0.384
    1UNL     O5   51  -0.635  -0.055   0.234
    1UNL    C43   52  -0.750  -0.041   0.315
    1UNL     H1   53  -0.737  -0.283  -0.053
    1UNL     H2   54  -0.738  -0.121   0.002
    1UNL     H3   55  -0.637  -0.247   0.092
    1UNL     H4   56  -0.601  -0.150  -0.203
    1UNL     H5   57  -0.508  -0.281  -0.125
    1UNL     H6   58  -0.373  -0.068  -0.112
    1UNL     H7   59  -0.558   0.101  -0.130
    1UNL     H8   60  -0.595   0.070   0.037
    1UNL     H9   61  -0.529   0.322   0.037
    1UNL    H10   62  -0.445   0.332  -0.114
    1UNL    H11   63  -0.346   0.378   0.019
    1UNL    H12   64  -0.374   0.216   0.200
    1UNL    H13   65  -0.130   0.208   0.162
    1UNL    H14   66  -0.151   0.025   0.173
    1UNL    H15   67  -0.043  -0.072  -0.274
    1UNL    H16   68   0.072   0.169  -0.402
    1UNL    H17   69   0.090   0.412  -0.382
    1UNL    H18   70   0.005   0.516  -0.161
    1UNL    H19   71  -0.118   0.392  -0.006
    1UNL    H20   72  -0.227  -0.213  -0.148
    1UNL    H21   73  -0.134  -0.575  -0.159
    1UNL    H22   74  -0.210  -0.618  -0.009
    1UNL    H23   75  -0.302  -0.568  -0.157
    1UNL    H24   76  -0.003  -0.571   0.006
    1UNL    H25   77   0.239  -0.493   0.043
    1UNL    H26   78   0.082  -0.001  -0.057
    1UNL    H27   79   0.197   0.402   0.173
    1UNL    H28   80   0.070   0.281   0.158
    1UNL    H29   81   0.217   0.253   0.264
    1UNL    H30   82   0.250   0.044  -0.215
    1UNL    H31   83   0.308   0.208  -0.151
    1UNL    H32   84   0.440   0.130  -0.363
    1UNL    H33   85   0.658   0.191  -0.266
    1UNL    H34   86   0.522   0.282  -0.185
    1UNL    H35   87   0.721   0.087  -0.065
    1UNL    H36   88   0.618   0.175   0.152
    1UNL    H37   89   0.522   0.294   0.069
    1UNL    H38   90   0.842   0.290   0.060
    1UNL    H39   91   0.732   0.412  -0.017
    1UNL    H40   92   0.724   0.401   0.143
    1UNL    H41   93   0.552  -0.030   0.092
    1UNL    H42   94   0.466  -0.308  -0.147
    1UNL    H43   95   0.623  -0.298  -0.065
    1UNL    H44   96   0.430  -0.356   0.105
    1UNL    H45   97   0.480  -0.186   0.131
    1UNL    H46   98   0.604  -0.072  -0.329
    1UNL    H47   99   0.446  -0.123  -0.291
    1UNL    H48  100  -0.261  -0.294   0.089
    1UNL    H49  101  -0.192  -0.169   0.163
    1UNL    H50  102  -0.454  -0.201   0.132
    1UNL    H51  103  -0.333  -0.034   0.279
    1UNL    H52  104  -0.756  -0.128   0.377
    1UNL    H53  105  -0.731   0.048   0.381
    1UNL    H54  106  -0.839  -0.038   0.256
   0.00000   0.00000   0.00000   0.00000   0.00000   0.00000   0.00000   0.00000   0.00000
Generated with MDTraj, t= 32.0
 106
    1UNL     C1    1  -0.677  -0.222  -0.029
    1UNL     C2    2  -0.559  -0.176  -0.115
    1UNL     C3    3  -0.465  -0.074  -0.042
    1UNL     C4    4  -0.521   0.061  -0.024
    1UNL     N1    5  -0.410   0.158   0.003
    1UNL     C5    6  -0.422   0.303  -0.033
    1UNL     C6    7  -0.343   0.130   0.137
    1UNL     C7    8  -0.189   0.138   0.119
    1UNL     C8    9  -0.137   0.104  -0.015
    1UNL     C9   10  -0.143  -0.015  -0.086
    1UNL     N2   11  -0.115   0.017  -0.221
    1UNL    C10   12  -0.077   0.150  -0.227
    1UNL    C11   13  -0.039   0.228  -0.338
    1UNL    C12   14   0.009   0.355  -0.313
    1UNL    C13   15   0.015   0.405  -0.184
    1UNL    C14   16  -0.033   0.333  -0.079
    1UNL    C15   17  -0.075   0.201  -0.100
    1UNL    C16   18  -0.170  -0.165  -0.054
    1UNL    C17   19  -0.046  -0.253  -0.043
    1UNL    C18   20  -0.065  -0.392  -0.037
    1UNL     O1   21  -0.197  -0.435  -0.055
    1UNL    C19   22  -0.199  -0.556  -0.126
    1UNL    C20   23   0.045  -0.482  -0.005
    1UNL    C21   24   0.168  -0.439   0.015
    1UNL    C22   25   0.189  -0.300   0.006
    1UNL    C23   26   0.305  -0.220   0.016
    1UNL    C24   27   0.270  -0.088  -0.007
    1UNL     N3   28   0.133  -0.080  -0.022
    1UNL    C25   29   0.084  -0.211  -0.019
    1UNL    C26   30   0.355   0.036  -0.014
    1UNL    C27   31   0.319   0.142   0.098
    1UNL     O2   32   0.391   0.130   0.193
    1UNL     O3   33   0.222   0.239   0.090
    1UNL    C28   34   0.217   0.328   0.200
    1UNL    C29   35   0.343   0.105  -0.160
    1UNL    C30   36   0.469   0.072  -0.247
    1UNL    C31   37   0.593   0.145  -0.189
    1UNL    C32   38   0.612   0.120  -0.038
    1UNL    C33   39   0.593   0.251   0.053
    1UNL    C34   40   0.723   0.337   0.046
    1UNL    C35   41   0.511   0.005  -0.005
    1UNL     N4   42   0.539  -0.107  -0.102
    1UNL    C36   43   0.540  -0.250  -0.063
    1UNL    C37   44   0.447  -0.268   0.055
    1UNL    C38   45   0.484  -0.079  -0.233
    1UNL    C39   46  -0.253  -0.192   0.073
    1UNL    C40   47  -0.393  -0.126   0.086
    1UNL    C41   48  -0.380  -0.010   0.193
    1UNL    C42   49  -0.507   0.011   0.279
    1UNL     O4   50  -0.493   0.064   0.385
    1UNL     O5   51  -0.616  -0.041   0.223
    1UNL    C43   52  -0.726  -0.001   0.309
    1UNL     H1   53  -0.740  -0.292  -0.087
    1UNL     H2   54  -0.747  -0.140  -0.003
    1UNL     H3   55  -0.644  -0.280   0.059
    1UNL     H4   56  -0.610  -0.130  -0.205
    1UNL     H5   57  -0.500  -0.266  -0.149
    1UNL     H6   58  -0.386  -0.055  -0.104
    1UNL     H7   59  -0.572   0.090  -0.115
    1UNL     H8   60  -0.593   0.066   0.059
    1UNL     H9   61  -0.502   0.350   0.032
    1UNL    H10   62  -0.451   0.319  -0.135
    1UNL    H11   63  -0.323   0.354  -0.027
    1UNL    H12   64  -0.368   0.208   0.211
    1UNL    H13   65  -0.149   0.241   0.144
    1UNL    H14   66  -0.145   0.066   0.193
    1UNL    H15   67  -0.125  -0.044  -0.304
    1UNL    H16   68  -0.041   0.192  -0.447
    1UNL    H17   69   0.058   0.416  -0.384
    1UNL    H18   70   0.049   0.507  -0.163
    1UNL    H19   71  -0.039   0.368   0.023
    1UNL    H20   72  -0.224  -0.213  -0.144
    1UNL    H21   73  -0.154  -0.636  -0.066
    1UNL    H22   74  -0.307  -0.584  -0.134
    1UNL    H23   75  -0.149  -0.541  -0.217
    1UNL    H24   76   0.023  -0.586   0.013
    1UNL    H25   77   0.248  -0.512   0.038
    1UNL    H26   78   0.075  -0.006  -0.066
    1UNL    H27   79   0.295   0.401   0.196
    1UNL    H28   80   0.121   0.377   0.205
    1UNL    H29   81   0.242   0.280   0.296
    1UNL    H30   82   0.253   0.081  -0.220
    1UNL    H31   83   0.344   0.216  -0.139
    1UNL    H32   84   0.462   0.107  -0.361
    1UNL    H33   85   0.676   0.107  -0.255
    1UNL    H34   86   0.583   0.251  -0.188
    1UNL    H35   87   0.721   0.088  -0.015
    1UNL    H36   88   0.571   0.223   0.153
    1UNL    H37   89   0.499   0.299   0.008
    1UNL    H38   90   0.812   0.294   0.096
    1UNL    H39   91   0.752   0.370  -0.052
    1UNL    H40   92   0.703   0.440   0.084
    1UNL    H41   93   0.533  -0.017   0.105
    1UNL    H42   94   0.519  -0.312  -0.157
    1UNL    H43   95   0.637  -0.286  -0.031
    1UNL    H44   96   0.436  -0.372   0.078
    1UNL    H45   97   0.472  -0.204   0.141
    1UNL    H46   98   0.556  -0.115  -0.306
    1UNL    H47   99   0.392  -0.126  -0.250
    1UNL    H48  100  -0.276  -0.298   0.100
    1UNL    H49  101  -0.188  -0.165   0.156
    1UNL    H50  102  -0.467  -0.196   0.123
    1UNL    H51  103  -0.304  -0.039   0.257
    1UNL    H52  104  -0.821  -0.010   0.263
    1UNL    H53  105  -0.716  -0.076   0.391
    1UNL    H54  106  -0.719   0.102   0.342
   0.00000   0.00000   0.00000   0.00000   0.00000   0.00000   0.00000   0.00000   0.00000
Generated with MDTraj, t= 33.0
 106
    1UNL     C1    1  -0.674  -0.177  -0.024
    1UNL     C2    2  -0.543  -0.170  -0.107
    1UNL     C3    3  -0.446  -0.070  -0.042
    1UNL     C4    4  -0.491   0.074  -0.042
    1UNL     N1    5  -0.383   0.158   0.003
    1UNL     C5    6  -0.411   0.307   0.001
    1UNL     C6    7  -0.329   0.119   0.136
    1UNL     C7    8  -0.173   0.112   0.128
    1UNL     C8    9  -0.130   0.083  -0.012
    1UNL     C9   10  -0.152  -0.033  -0.092
    1UNL     N2   11  -0.120  -0.003  -0.221
    1UNL    C10   12  -0.071   0.126  -0.230
    1UNL    C11   13  -0.038   0.202  -0.343
    1UNL    C12   14  -0.012   0.338  -0.322
    1UNL    C13   15  -0.016   0.393  -0.195
    1UNL    C14   16  -0.047   0.322  -0.085
    1UNL    C15   17  -0.075   0.186  -0.097
    1UNL    C16   18  -0.177  -0.174  -0.050
    1UNL    C17   19  -0.049  -0.255  -0.045
    1UNL    C18   20  -0.060  -0.395  -0.054
    1UNL     O1   21  -0.184  -0.448  -0.082
    1UNL    C19   22  -0.189  -0.560  -0.163
    1UNL    C20   23   0.055  -0.481  -0.031
    1UNL    C21   24   0.170  -0.432   0.014
    1UNL    C22   25   0.184  -0.289   0.010
    1UNL    C23   26   0.301  -0.212   0.025
    1UNL    C24   27   0.269  -0.076   0.001
    1UNL     N3   28   0.131  -0.071  -0.017
    1UNL    C25   29   0.082  -0.199  -0.019
    1UNL    C26   30   0.364   0.047  -0.004
    1UNL    C27   31   0.338   0.129   0.117
    1UNL     O2   32   0.372   0.102   0.230
    1UNL     O3   33   0.253   0.234   0.076
    1UNL    C28   34   0.198   0.319   0.174
    1UNL    C29   35   0.330   0.107  -0.143
    1UNL    C30   36   0.445   0.075  -0.240
    1UNL    C31   37   0.566   0.163  -0.191
    1UNL    C32   38   0.614   0.127  -0.043
    1UNL    C33   39   0.602   0.252   0.052
    1UNL    C34   40   0.706   0.356   0.008
    1UNL    C35   41   0.523   0.006   0.005
    1UNL     N4   42   0.556  -0.105  -0.098
    1UNL    C36   43   0.538  -0.243  -0.047
    1UNL    C37   44   0.437  -0.262   0.063
    1UNL    C38   45   0.483  -0.080  -0.227
    1UNL    C39   46  -0.252  -0.194   0.084
    1UNL    C40   47  -0.393  -0.126   0.095
    1UNL    C41   48  -0.387  -0.011   0.202
    1UNL    C42   49  -0.512   0.022   0.276
    1UNL     O4   50  -0.501   0.077   0.383
    1UNL     O5   51  -0.640  -0.009   0.220
    1UNL    C43   52  -0.732   0.006   0.325
    1UNL     H1   53  -0.756  -0.233  -0.078
    1UNL     H2   54  -0.724  -0.076  -0.012
    1UNL     H3   55  -0.673  -0.225   0.069
    1UNL     H4   56  -0.560  -0.134  -0.213
    1UNL     H5   57  -0.497  -0.272  -0.108
    1UNL     H6   58  -0.362  -0.061  -0.107
    1UNL     H7   59  -0.526   0.107  -0.141
    1UNL     H8   60  -0.568   0.093   0.033
    1UNL     H9   61  -0.503   0.338   0.056
    1UNL    H10   62  -0.418   0.335  -0.112
    1UNL    H11   63  -0.322   0.360   0.026
    1UNL    H12   64  -0.341   0.207   0.199
    1UNL    H13   65  -0.138   0.220   0.146
    1UNL    H14   66  -0.119   0.045   0.202
    1UNL    H15   67  -0.114  -0.069  -0.299
    1UNL    H16   68  -0.038   0.158  -0.435
    1UNL    H17   69   0.018   0.404  -0.405
    1UNL    H18   70   0.024   0.492  -0.187
    1UNL    H19   71  -0.062   0.373   0.009
    1UNL    H20   72  -0.248  -0.216  -0.131
    1UNL    H21   73  -0.295  -0.589  -0.176
    1UNL    H22   74  -0.152  -0.523  -0.267
    1UNL    H23   75  -0.129  -0.641  -0.122
    1UNL    H24   76   0.020  -0.584  -0.033
    1UNL    H25   77   0.255  -0.489   0.045
    1UNL    H26   78   0.083   0.019  -0.034
    1UNL    H27   79   0.266   0.339   0.254
    1UNL    H28   80   0.167   0.408   0.125
    1UNL    H29   81   0.110   0.282   0.230
    1UNL    H30   82   0.231   0.071  -0.185
    1UNL    H31   83   0.322   0.214  -0.138
    1UNL    H32   84   0.418   0.105  -0.348
    1UNL    H33   85   0.659   0.139  -0.252
    1UNL    H34   86   0.530   0.261  -0.196
    1UNL    H35   87   0.720   0.080  -0.040
    1UNL    H36   88   0.629   0.225   0.152
    1UNL    H37   89   0.500   0.302   0.047
    1UNL    H38   90   0.803   0.307   0.008
    1UNL    H39   91   0.682   0.404  -0.090
    1UNL    H40   92   0.697   0.443   0.076
    1UNL    H41   93   0.555  -0.029   0.110
    1UNL    H42   94   0.510  -0.318  -0.127
    1UNL    H43   95   0.640  -0.266  -0.019
    1UNL    H44   96   0.426  -0.364   0.090
    1UNL    H45   97   0.475  -0.205   0.150
    1UNL    H46   98   0.548  -0.116  -0.307
    1UNL    H47   99   0.399  -0.142  -0.240
    1UNL    H48  100  -0.248  -0.302   0.109
    1UNL    H49  101  -0.188  -0.160   0.166
    1UNL    H50  102  -0.469  -0.193   0.132
    1UNL    H51  103  -0.317  -0.043   0.270
    1UNL    H52  104  -0.772   0.106   0.323
    1UNL    H53  105  -0.810  -0.070   0.298
    1UNL    H54  106  -0.690  -0.004   0.426
   0.00000   0.00000   0.00000   0.00000   0.00000   0.00000   0.00000   0.00000   0.00000
Generated with MDTraj, t= 34.0
 106
    1UNL     C1    1  -0.698  -0.127  -0.026
    1UNL     C2    2  -0.562  -0.135  -0.095
    1UNL     C3    3  -0.450  -0.050  -0.030
    1UNL     C4    4  -0.500   0.098  -0.013
    1UNL     N1    5  -0.377   0.176   0.025
    1UNL     C5    6  -0.406   0.323   0.040
    1UNL     C6    7  -0.312   0.121   0.153
    1UNL     C7    8  -0.161   0.104   0.125
    1UNL     C8    9  -0.136   0.077  -0.022
    1UNL     C9   10  -0.122  -0.043  -0.088
    1UNL     N2   11  -0.079  -0.023  -0.214
    1UNL    C10   12  -0.064   0.116  -0.239
    1UNL    C11   13  -0.010   0.192  -0.346
    1UNL    C12   14  -0.002   0.326  -0.334
    1UNL    C13   15  -0.038   0.390  -0.217
    1UNL    C14   16  -0.084   0.321  -0.110
    1UNL    C15   17  -0.101   0.177  -0.119
    1UNL    C16   18  -0.162  -0.188  -0.045
    1UNL    C17   19  -0.037  -0.272  -0.028
    1UNL    C18   20  -0.043  -0.409  -0.055
    1UNL     O1   21  -0.176  -0.456  -0.096
    1UNL    C19   22  -0.187  -0.552  -0.200
    1UNL    C20   23   0.071  -0.490  -0.033
    1UNL    C21   24   0.190  -0.446   0.010
    1UNL    C22   25   0.202  -0.307   0.032
    1UNL    C23   26   0.314  -0.225   0.027
    1UNL    C24   27   0.266  -0.092   0.019
    1UNL     N3   28   0.133  -0.091   0.010
    1UNL    C25   29   0.086  -0.223   0.011
    1UNL    C26   30   0.349   0.040  -0.001
    1UNL    C27   31   0.308   0.136   0.113
    1UNL     O2   32   0.333   0.095   0.222
    1UNL     O3   33   0.245   0.250   0.081
    1UNL    C28   34   0.202   0.333   0.194
    1UNL    C29   35   0.316   0.078  -0.146
    1UNL    C30   36   0.442   0.079  -0.246
    1UNL    C31   37   0.540   0.184  -0.194
    1UNL    C32   38   0.575   0.138  -0.048
    1UNL    C33   39   0.589   0.251   0.048
    1UNL    C34   40   0.687   0.360   0.008
    1UNL    C35   41   0.505   0.010   0.000
    1UNL     N4   42   0.540  -0.100  -0.098
    1UNL    C36   43   0.553  -0.244  -0.055
    1UNL    C37   44   0.456  -0.272   0.057
    1UNL    C38   45   0.508  -0.061  -0.238
    1UNL    C39   46  -0.260  -0.202   0.076
    1UNL    C40   47  -0.389  -0.115   0.099
    1UNL    C41   48  -0.370  -0.009   0.215
    1UNL    C42   49  -0.505   0.028   0.280
    1UNL     O4   50  -0.498   0.101   0.374
    1UNL     O5   51  -0.612  -0.034   0.228
    1UNL    C43   52  -0.732   0.023   0.271
    1UNL     H1   53  -0.768  -0.203  -0.070
    1UNL     H2   54  -0.751  -0.028  -0.045
    1UNL     H3   55  -0.692  -0.151   0.076
    1UNL     H4   56  -0.571  -0.103  -0.204
    1UNL     H5   57  -0.526  -0.241  -0.087
    1UNL     H6   58  -0.362  -0.050  -0.103
    1UNL     H7   59  -0.546   0.136  -0.107
    1UNL     H8   60  -0.570   0.104   0.066
    1UNL     H9   61  -0.493   0.330   0.107
    1UNL    H10   62  -0.439   0.359  -0.068
    1UNL    H11   63  -0.321   0.383   0.066
    1UNL    H12   64  -0.346   0.190   0.232
    1UNL    H13   65  -0.101   0.198   0.146
    1UNL    H14   66  -0.124   0.011   0.182
    1UNL    H15   67  -0.061  -0.094  -0.285
    1UNL    H16   68   0.011   0.142  -0.443
    1UNL    H17   69   0.026   0.373  -0.423
    1UNL    H18   70  -0.024   0.497  -0.204
    1UNL    H19   71  -0.104   0.368  -0.018
    1UNL    H20   72  -0.221  -0.235  -0.133
    1UNL    H21   73  -0.172  -0.509  -0.304
    1UNL    H22   74  -0.103  -0.629  -0.185
    1UNL    H23   75  -0.285  -0.607  -0.192
    1UNL    H24   76   0.080  -0.593  -0.057
    1UNL    H25   77   0.277  -0.507   0.030
    1UNL    H26   78   0.069  -0.014  -0.011
    1UNL    H27   79   0.287   0.363   0.252
    1UNL    H28   80   0.143   0.417   0.158
    1UNL    H29   81   0.146   0.283   0.278
    1UNL    H30   82   0.244  -0.000  -0.189
    1UNL    H31   83   0.259   0.164  -0.152
    1UNL    H32   84   0.416   0.094  -0.354
    1UNL    H33   85   0.630   0.184  -0.264
    1UNL    H34   86   0.489   0.275  -0.189
    1UNL    H35   87   0.679   0.090  -0.064
    1UNL    H36   88   0.617   0.217   0.145
    1UNL    H37   89   0.487   0.301   0.057
    1UNL    H38   90   0.783   0.320  -0.013
    1UNL    H39   91   0.654   0.420  -0.086
    1UNL    H40   92   0.688   0.447   0.074
    1UNL    H41   93   0.538  -0.011   0.108
    1UNL    H42   94   0.514  -0.293  -0.148
    1UNL    H43   95   0.652  -0.288  -0.036
    1UNL    H44   96   0.471  -0.374   0.080
    1UNL    H45   97   0.490  -0.220   0.150
    1UNL    H46   98   0.597  -0.073  -0.302
    1UNL    H47   99   0.449  -0.140  -0.275
    1UNL    H48  100  -0.301  -0.304   0.057
    1UNL    H49  101  -0.213  -0.225   0.172
    1UNL    H50  102  -0.469  -0.178   0.134
    1UNL    H51  103  -0.310  -0.047   0.290
    1UNL    H52  104  -0.730   0.057   0.375
    1UNL    H53  105  -0.746   0.104   0.194
    1UNL    H54  106  -0.817  -0.047   0.263
   0.00000   0.00000   0.00000   0.00000   0.00000   0.00000   0.00000   0.00000   0.00000
Generated with MDTraj, t= 35.0
 106
    1UNL     C1    1  -0.665  -0.126  -0.053
    1UNL     C2    2  -0.534  -0.111  -0.122
    1UNL     C3    3  -0.422  -0.040  -0.042
    1UNL     C4    4  -0.470   0.112  -0.018
    1UNL     N1    5  -0.369   0.198   0.046
    1UNL     C5    6  -0.423   0.321   0.101
    1UNL     C6    7  -0.292   0.124   0.158
    1UNL     C7    8  -0.142   0.097   0.126
    1UNL     C8    9  -0.122   0.072  -0.021
    1UNL     C9   10  -0.116  -0.052  -0.084
    1UNL     N2   11  -0.068  -0.034  -0.213
    1UNL    C10   12  -0.052   0.102  -0.240
    1UNL    C11   13  -0.005   0.166  -0.353
    1UNL    C12   14   0.002   0.303  -0.342
    1UNL    C13   15  -0.033   0.374  -0.228
    1UNL    C14   16  -0.065   0.306  -0.113
    1UNL    C15   17  -0.078   0.166  -0.117
    1UNL    C16   18  -0.161  -0.186  -0.037
    1UNL    C17   19  -0.042  -0.283  -0.021
    1UNL    C18   20  -0.057  -0.427  -0.036
    1UNL     O1   21  -0.174  -0.472  -0.097
    1UNL    C19   22  -0.151  -0.554  -0.211
    1UNL    C20   23   0.051  -0.514  -0.010
    1UNL    C21   24   0.179  -0.464   0.008
    1UNL    C22   25   0.198  -0.324   0.008
    1UNL    C23   26   0.312  -0.234   0.019
    1UNL    C24   27   0.267  -0.101   0.017
    1UNL     N3   28   0.132  -0.101   0.014
    1UNL    C25   29   0.087  -0.234   0.005
    1UNL    C26   30   0.340   0.037  -0.001
    1UNL    C27   31   0.303   0.135   0.114
    1UNL     O2   32   0.339   0.114   0.227
    1UNL     O3   33   0.232   0.241   0.065
    1UNL    C28   34   0.196   0.343   0.157
    1UNL    C29   35   0.293   0.090  -0.144
    1UNL    C30   36   0.411   0.086  -0.239
    1UNL    C31   37   0.514   0.188  -0.181
    1UNL    C32   38   0.573   0.145  -0.041
    1UNL    C33   39   0.556   0.258   0.062
    1UNL    C34   40   0.654   0.375   0.059
    1UNL    C35   41   0.493   0.019  -0.004
    1UNL     N4   42   0.531  -0.091  -0.112
    1UNL    C36   43   0.540  -0.233  -0.074
    1UNL    C37   44   0.452  -0.277   0.043
    1UNL    C38   45   0.474  -0.053  -0.247
    1UNL    C39   46  -0.253  -0.197   0.087
    1UNL    C40   47  -0.380  -0.104   0.093
    1UNL    C41   48  -0.372   0.002   0.203
    1UNL    C42   49  -0.504   0.040   0.271
    1UNL     O4   50  -0.494   0.132   0.349
    1UNL     O5   51  -0.620  -0.025   0.232
    1UNL    C43   52  -0.728   0.017   0.312
    1UNL     H1   53  -0.733  -0.200  -0.101
    1UNL     H2   54  -0.720  -0.027  -0.059
    1UNL     H3   55  -0.646  -0.157   0.048
    1UNL     H4   56  -0.549  -0.055  -0.219
    1UNL     H5   57  -0.492  -0.212  -0.144
    1UNL     H6   58  -0.328  -0.049  -0.112
    1UNL     H7   59  -0.502   0.159  -0.115
    1UNL     H8   60  -0.552   0.113   0.047
    1UNL     H9   61  -0.488   0.282   0.184
    1UNL    H10   62  -0.481   0.377   0.027
    1UNL    H11   63  -0.336   0.381   0.136
    1UNL    H12   64  -0.310   0.185   0.249
    1UNL    H13   65  -0.081   0.192   0.140
    1UNL    H14   66  -0.091   0.011   0.182
    1UNL    H15   67  -0.054  -0.111  -0.279
    1UNL    H16   68   0.008   0.112  -0.447
    1UNL    H17   69   0.032   0.360  -0.434
    1UNL    H18   70  -0.034   0.480  -0.247
    1UNL    H19   71  -0.069   0.359  -0.016
    1UNL    H20   72  -0.234  -0.220  -0.119
    1UNL    H21   73  -0.042  -0.576  -0.234
    1UNL    H22   74  -0.203  -0.653  -0.192
    1UNL    H23   75  -0.205  -0.512  -0.308
    1UNL    H24   76   0.025  -0.619   0.008
    1UNL    H25   77   0.266  -0.521   0.032
    1UNL    H26   78   0.069  -0.028  -0.018
    1UNL    H27   79   0.276   0.417   0.158
    1UNL    H28   80   0.105   0.389   0.117
    1UNL    H29   81   0.188   0.308   0.265
    1UNL    H30   82   0.202   0.027  -0.175
    1UNL    H31   83   0.252   0.183  -0.151
    1UNL    H32   84   0.367   0.128  -0.333
    1UNL    H33   85   0.593   0.202  -0.258
    1UNL    H34   86   0.462   0.280  -0.174
    1UNL    H35   87   0.679   0.109  -0.060
    1UNL    H36   88   0.565   0.213   0.158
    1UNL    H37   89   0.448   0.292   0.061
    1UNL    H38   90   0.751   0.332   0.073
    1UNL    H39   91   0.669   0.430  -0.043
    1UNL    H40   92   0.638   0.467   0.117
    1UNL    H41   93   0.525  -0.023   0.098
    1UNL    H42   94   0.511  -0.299  -0.159
    1UNL    H43   95   0.648  -0.246  -0.065
    1UNL    H44   96   0.461  -0.382   0.054
    1UNL    H45   97   0.502  -0.244   0.139
    1UNL    H46   98   0.559  -0.056  -0.316
    1UNL    H47   99   0.413  -0.126  -0.293
    1UNL    H48  100  -0.288  -0.296   0.118
    1UNL    H49  101  -0.180  -0.169   0.165
    1UNL    H50  102  -0.463  -0.172   0.112
    1UNL    H51  103  -0.312  -0.037   0.278
    1UNL    H52  104  -0.766  -0.063   0.376
    1UNL    H53  105  -0.696   0.111   0.364
    1UNL    H54  106  -0.813   0.045   0.248
   0.00000   0.00000   0.00000   0.00000   0.00000   0.00000   0.00000   0.00000   0.00000
Generated with MDTraj, t= 36.0
 106
    1UNL     C1    1  -0.643  -0.123  -0.099
    1UNL     C2    2  -0.495  -0.101  -0.142
    1UNL     C3    3  -0.404  -0.022  -0.044
    1UNL     C4    4  -0.461   0.125  -0.015
    1UNL     N1    5  -0.359   0.209   0.061
    1UNL     C5    6  -0.426   0.342   0.112
    1UNL     C6    7  -0.276   0.131   0.159
    1UNL     C7    8  -0.134   0.102   0.113
    1UNL     C8    9  -0.121   0.058  -0.027
    1UNL     C9   10  -0.133  -0.065  -0.091
    1UNL     N2   11  -0.113  -0.049  -0.227
    1UNL    C10   12  -0.061   0.084  -0.243
    1UNL    C11   13  -0.008   0.150  -0.354
    1UNL    C12   14   0.022   0.285  -0.343
    1UNL    C13   15   0.006   0.356  -0.222
    1UNL    C14   16  -0.041   0.291  -0.113
    1UNL    C15   17  -0.075   0.152  -0.121
    1UNL    C16   18  -0.169  -0.197  -0.036
    1UNL    C17   19  -0.053  -0.283  -0.015
    1UNL    C18   20  -0.052  -0.422  -0.035
    1UNL     O1   21  -0.178  -0.477  -0.069
    1UNL    C19   22  -0.174  -0.561  -0.185
    1UNL    C20   23   0.068  -0.498  -0.030
    1UNL    C21   24   0.186  -0.444  -0.002
    1UNL    C22   25   0.194  -0.310   0.027
    1UNL    C23   26   0.305  -0.219   0.043
    1UNL    C24   27   0.258  -0.090   0.022
    1UNL     N3   28   0.113  -0.097   0.020
    1UNL    C25   29   0.080  -0.229   0.013
    1UNL    C26   30   0.334   0.035  -0.009
    1UNL    C27   31   0.283   0.123   0.100
    1UNL     O2   32   0.335   0.100   0.207
    1UNL     O3   33   0.192   0.221   0.066
    1UNL    C28   34   0.166   0.303   0.176
    1UNL    C29   35   0.291   0.088  -0.151
    1UNL    C30   36   0.418   0.099  -0.246
    1UNL    C31   37   0.518   0.206  -0.180
    1UNL    C32   38   0.561   0.157  -0.037
    1UNL    C33   39   0.549   0.262   0.073
    1UNL    C34   40   0.652   0.378   0.072
    1UNL    C35   41   0.487   0.023  -0.008
    1UNL     N4   42   0.516  -0.083  -0.119
    1UNL    C36   43   0.510  -0.229  -0.095
    1UNL    C37   44   0.450  -0.262   0.044
    1UNL    C38   45   0.487  -0.040  -0.255
    1UNL    C39   46  -0.248  -0.202   0.094
    1UNL    C40   47  -0.372  -0.097   0.095
    1UNL    C41   48  -0.359   0.006   0.210
    1UNL    C42   49  -0.490   0.047   0.269
    1UNL     O4   50  -0.493   0.143   0.344
    1UNL     O5   51  -0.595  -0.038   0.243
    1UNL    C43   52  -0.707  -0.003   0.317
    1UNL     H1   53  -0.711  -0.171  -0.171
    1UNL     H2   54  -0.689  -0.024  -0.089
    1UNL     H3   55  -0.650  -0.177  -0.000
    1UNL     H4   56  -0.480  -0.048  -0.238
    1UNL     H5   57  -0.451  -0.202  -0.159
    1UNL     H6   58  -0.311  -0.001  -0.094
    1UNL     H7   59  -0.472   0.180  -0.112
    1UNL     H8   60  -0.554   0.130   0.036
    1UNL     H9   61  -0.497   0.302   0.190
    1UNL    H10   62  -0.479   0.387   0.037
    1UNL    H11   63  -0.354   0.423   0.154
    1UNL    H12   64  -0.267   0.203   0.245
    1UNL    H13   65  -0.061   0.186   0.131
    1UNL    H14   66  -0.095   0.012   0.173
    1UNL    H15   67  -0.090  -0.121  -0.295
    1UNL    H16   68   0.015   0.097  -0.441
    1UNL    H17   69   0.049   0.337  -0.428
    1UNL    H18   70   0.053   0.454  -0.214
    1UNL    H19   71  -0.042   0.351  -0.027
    1UNL    H20   72  -0.242  -0.241  -0.113
    1UNL    H21   73  -0.110  -0.655  -0.182
    1UNL    H22   74  -0.278  -0.589  -0.215
    1UNL    H23   75  -0.142  -0.494  -0.278
    1UNL    H24   76   0.055  -0.604  -0.044
    1UNL    H25   77   0.272  -0.510   0.004
    1UNL    H26   78   0.068  -0.010   0.004
    1UNL    H27   79   0.261   0.330   0.224
    1UNL    H28   80   0.118   0.396   0.143
    1UNL    H29   81   0.100   0.239   0.245
    1UNL    H30   82   0.210   0.032  -0.207
    1UNL    H31   83   0.244   0.178  -0.130
    1UNL    H32   84   0.396   0.140  -0.344
    1UNL    H33   85   0.602   0.227  -0.244
    1UNL    H34   86   0.470   0.302  -0.170
    1UNL    H35   87   0.671   0.137  -0.032
    1UNL    H36   88   0.550   0.216   0.171
    1UNL    H37   89   0.450   0.314   0.074
    1UNL    H38   90   0.750   0.334   0.092
    1UNL    H39   91   0.654   0.423  -0.033
    1UNL    H40   92   0.626   0.461   0.136
    1UNL    H41   93   0.515  -0.018   0.095
    1UNL    H42   94   0.453  -0.270  -0.180
    1UNL    H43   95   0.608  -0.276  -0.112
    1UNL    H44   96   0.459  -0.367   0.062
    1UNL    H45   97   0.502  -0.222   0.134
    1UNL    H46   98   0.573  -0.049  -0.322
    1UNL    H47   99   0.426  -0.116  -0.299
    1UNL    H48  100  -0.274  -0.307   0.112
    1UNL    H49  101  -0.183  -0.170   0.178
    1UNL    H50  102  -0.454  -0.158   0.137
    1UNL    H51  103  -0.307  -0.038   0.290
    1UNL    H52  104  -0.760  -0.093   0.344
    1UNL    H53  105  -0.677   0.055   0.407
    1UNL    H54  106  -0.778   0.057   0.260
   0.00000   0.00000   0.00000   0.00000   0.00000   0.00000   0.00000   0.00000   0.00000
Generated with MDTraj, t= 37.0
 106
    1UNL     C1    1  -0.667  -0.106  -0.093
    1UNL     C2    2  -0.523  -0.096  -0.135
    1UNL     C3    3  -0.427  -0.022  -0.045
    1UNL     C4    4  -0.469   0.123  -0.002
    1UNL     N1    5  -0.368   0.204   0.062
    1UNL     C5    6  -0.395   0.350   0.086
    1UNL     C6    7  -0.287   0.130   0.171
    1UNL     C7    8  -0.146   0.103   0.110
    1UNL     C8    9  -0.128   0.074  -0.039
    1UNL     C9   10  -0.139  -0.054  -0.094
    1UNL     N2   11  -0.100  -0.039  -0.225
    1UNL    C10   12  -0.055   0.088  -0.253
    1UNL    C11   13   0.002   0.147  -0.370
    1UNL    C12   14   0.043   0.274  -0.374
    1UNL    C13   15   0.034   0.342  -0.253
    1UNL    C14   16  -0.017   0.290  -0.136
    1UNL    C15   17  -0.061   0.156  -0.132
    1UNL    C16   18  -0.174  -0.196  -0.053
    1UNL    C17   19  -0.046  -0.287  -0.031
    1UNL    C18   20  -0.063  -0.420  -0.026
    1UNL     O1   21  -0.192  -0.469  -0.051
    1UNL    C19   22  -0.204  -0.575  -0.146
    1UNL    C20   23   0.046  -0.503   0.002
    1UNL    C21   24   0.179  -0.450   0.013
    1UNL    C22   25   0.202  -0.312   0.008
    1UNL    C23   26   0.321  -0.228   0.009
    1UNL    C24   27   0.272  -0.101   0.011
    1UNL     N3   28   0.137  -0.101  -0.002
    1UNL    C25   29   0.090  -0.232  -0.019
    1UNL    C26   30   0.333   0.040  -0.010
    1UNL    C27   31   0.287   0.133   0.113
    1UNL     O2   32   0.347   0.121   0.219
    1UNL     O3   33   0.181   0.214   0.095
    1UNL    C28   34   0.150   0.277   0.214
    1UNL    C29   35   0.290   0.099  -0.146
    1UNL    C30   36   0.412   0.120  -0.235
    1UNL    C31   37   0.512   0.217  -0.165
    1UNL    C32   38   0.559   0.160  -0.027
    1UNL    C33   39   0.569   0.264   0.087
    1UNL    C34   40   0.659   0.386   0.058
    1UNL    C35   41   0.488   0.024   0.002
    1UNL     N4   42   0.528  -0.071  -0.114
    1UNL    C36   43   0.557  -0.211  -0.094
    1UNL    C37   44   0.465  -0.279   0.006
    1UNL    C38   45   0.477  -0.020  -0.248
    1UNL    C39   46  -0.277  -0.214   0.071
    1UNL    C40   47  -0.388  -0.099   0.089
    1UNL    C41   48  -0.364  -0.006   0.209
    1UNL    C42   49  -0.491   0.027   0.281
    1UNL     O4   50  -0.495   0.138   0.334
    1UNL     O5   51  -0.594  -0.063   0.283
    1UNL    C43   52  -0.717  -0.005   0.321
    1UNL     H1   53  -0.732  -0.145  -0.172
    1UNL     H2   54  -0.703  -0.006  -0.073
    1UNL     H3   55  -0.671  -0.175   0.002
    1UNL     H4   56  -0.527  -0.060  -0.239
    1UNL     H5   57  -0.480  -0.199  -0.147
    1UNL     H6   58  -0.341  -0.013  -0.100
    1UNL     H7   59  -0.509   0.183  -0.082
    1UNL     H8   60  -0.549   0.120   0.071
    1UNL     H9   61  -0.463   0.367   0.174
    1UNL    H10   62  -0.429   0.400   0.001
    1UNL    H11   63  -0.292   0.397   0.104
    1UNL    H12   64  -0.265   0.197   0.259
    1UNL    H13   65  -0.083   0.195   0.129
    1UNL    H14   66  -0.105   0.019   0.176
    1UNL    H15   67  -0.112  -0.105  -0.301
    1UNL    H16   68   0.012   0.082  -0.463
    1UNL    H17   69   0.097   0.312  -0.464
    1UNL    H18   70   0.069   0.442  -0.248
    1UNL    H19   71  -0.026   0.350  -0.044
    1UNL    H20   72  -0.233  -0.246  -0.135
    1UNL    H21   73  -0.253  -0.670  -0.109
    1UNL    H22   74  -0.255  -0.536  -0.237
    1UNL    H23   75  -0.101  -0.600  -0.192
    1UNL    H24   76   0.033  -0.608   0.008
    1UNL    H25   77   0.255  -0.518   0.043
    1UNL    H26   78   0.075  -0.027  -0.040
    1UNL    H27   79   0.225   0.353   0.237
    1UNL    H28   80   0.053   0.324   0.207
    1UNL    H29   81   0.137   0.186   0.282
    1UNL    H30   82   0.221   0.025  -0.193
    1UNL    H31   83   0.232   0.189  -0.134
    1UNL    H32   84   0.386   0.166  -0.329
    1UNL    H33   85   0.591   0.245  -0.227
    1UNL    H34   86   0.458   0.312  -0.155
    1UNL    H35   87   0.669   0.145  -0.032
    1UNL    H36   88   0.590   0.225   0.187
    1UNL    H37   89   0.467   0.306   0.102
    1UNL    H38   90   0.755   0.347   0.019
    1UNL    H39   91   0.609   0.445  -0.019
    1UNL    H40   92   0.671   0.451   0.144
    1UNL    H41   93   0.518  -0.022   0.103
    1UNL    H42   94   0.539  -0.261  -0.190
    1UNL    H43   95   0.666  -0.226  -0.082
    1UNL    H44   96   0.463  -0.384  -0.007
    1UNL    H45   97   0.505  -0.261   0.108
    1UNL    H46   98   0.565  -0.026  -0.312
    1UNL    H47   99   0.415  -0.090  -0.302
    1UNL    H48  100  -0.327  -0.310   0.058
    1UNL    H49  101  -0.205  -0.223   0.157
    1UNL    H50  102  -0.474  -0.156   0.127
    1UNL    H51  103  -0.294  -0.045   0.277
    1UNL    H52  104  -0.799  -0.048   0.265
    1UNL    H53  105  -0.733  -0.023   0.427
    1UNL    H54  106  -0.722   0.100   0.303
   0.00000   0.00000   0.00000   0.00000   0.00000   0.00000   0.00000   0.00000   0.00000
Generated with MDTraj, t= 38.0
 106
    1UNL     C1    1  -0.703  -0.097  -0.026
    1UNL     C2    2  -0.567  -0.109  -0.109
    1UNL     C3    3  -0.441  -0.039  -0.059
    1UNL     C4    4  -0.467   0.113  -0.041
    1UNL     N1    5  -0.355   0.198   0.021
    1UNL     C5    6  -0.394   0.331   0.060
    1UNL     C6    7  -0.284   0.126   0.134
    1UNL     C7    8  -0.144   0.092   0.091
    1UNL     C8    9  -0.136   0.064  -0.052
    1UNL     C9   10  -0.144  -0.056  -0.118
    1UNL     N2   11  -0.088  -0.047  -0.241
    1UNL    C10   12  -0.047   0.082  -0.265
    1UNL    C11   13   0.014   0.150  -0.369
    1UNL    C12   14   0.051   0.281  -0.350
    1UNL    C13   15   0.034   0.348  -0.226
    1UNL    C14   16  -0.036   0.285  -0.125
    1UNL    C15   17  -0.074   0.152  -0.146
    1UNL    C16   18  -0.177  -0.189  -0.053
    1UNL    C17   19  -0.053  -0.270  -0.038
    1UNL    C18   20  -0.069  -0.410  -0.020
    1UNL     O1   21  -0.194  -0.476  -0.019
    1UNL    C19   22  -0.218  -0.600  -0.088
    1UNL    C20   23   0.045  -0.486  -0.013
    1UNL    C21   24   0.177  -0.436  -0.012
    1UNL    C22   25   0.192  -0.297  -0.009
    1UNL    C23   26   0.308  -0.211   0.007
    1UNL    C24   27   0.264  -0.082   0.004
    1UNL     N3   28   0.127  -0.088  -0.020
    1UNL    C25   29   0.075  -0.218  -0.021
    1UNL    C26   30   0.346   0.042  -0.001
    1UNL    C27   31   0.303   0.110   0.133
    1UNL     O2   32   0.375   0.103   0.232
    1UNL     O3   33   0.184   0.172   0.129
    1UNL    C28   34   0.173   0.266   0.236
    1UNL    C29   35   0.312   0.125  -0.129
    1UNL    C30   36   0.426   0.136  -0.233
    1UNL    C31   37   0.536   0.218  -0.160
    1UNL    C32   38   0.579   0.156  -0.025
    1UNL    C33   39   0.560   0.260   0.086
    1UNL    C34   40   0.648   0.384   0.070
    1UNL    C35   41   0.497   0.023   0.000
    1UNL     N4   42   0.532  -0.061  -0.126
    1UNL    C36   43   0.532  -0.205  -0.106
    1UNL    C37   44   0.455  -0.256   0.018
    1UNL    C38   45   0.477  -0.007  -0.251
    1UNL    C39   46  -0.267  -0.195   0.069
    1UNL    C40   47  -0.391  -0.109   0.074
    1UNL    C41   48  -0.364  -0.006   0.185
    1UNL    C42   49  -0.489   0.039   0.259
    1UNL     O4   50  -0.490   0.144   0.327
    1UNL     O5   51  -0.600  -0.046   0.247
    1UNL    C43   52  -0.679  -0.039   0.359
    1UNL     H1   53  -0.788  -0.157  -0.062
    1UNL     H2   54  -0.741   0.005  -0.029
    1UNL     H3   55  -0.687  -0.130   0.084
    1UNL     H4   56  -0.589  -0.078  -0.211
    1UNL     H5   57  -0.548  -0.216  -0.134
    1UNL     H6   58  -0.361  -0.043  -0.137
    1UNL     H7   59  -0.476   0.156  -0.138
    1UNL     H8   60  -0.564   0.131   0.010
    1UNL     H9   61  -0.456   0.332   0.152
    1UNL    H10   62  -0.444   0.365  -0.035
    1UNL    H11   63  -0.310   0.403   0.068
    1UNL    H12   64  -0.284   0.202   0.216
    1UNL    H13   65  -0.086   0.184   0.124
    1UNL    H14   66  -0.108   0.006   0.157
    1UNL    H15   67  -0.064  -0.129  -0.295
    1UNL    H16   68   0.019   0.093  -0.454
    1UNL    H17   69   0.095   0.333  -0.431
    1UNL    H18   70   0.073   0.451  -0.230
    1UNL    H19   71  -0.067   0.344  -0.042
    1UNL    H20   72  -0.235  -0.243  -0.133
    1UNL    H21   73  -0.307  -0.651  -0.041
    1UNL    H22   74  -0.233  -0.579  -0.195
    1UNL    H23   75  -0.128  -0.663  -0.079
    1UNL    H24   76   0.031  -0.589   0.025
    1UNL    H25   77   0.248  -0.517   0.011
    1UNL    H26   78   0.077   0.001  -0.021
    1UNL    H27   79   0.255   0.337   0.220
    1UNL    H28   80   0.083   0.321   0.224
    1UNL    H29   81   0.156   0.204   0.327
    1UNL    H30   82   0.223   0.078  -0.169
    1UNL    H31   83   0.268   0.223  -0.094
    1UNL    H32   84   0.381   0.178  -0.322
    1UNL    H33   85   0.611   0.237  -0.226
    1UNL    H34   86   0.486   0.317  -0.151
    1UNL    H35   87   0.685   0.137  -0.027
    1UNL    H36   88   0.585   0.204   0.179
    1UNL    H37   89   0.454   0.279   0.100
    1UNL    H38   90   0.756   0.351   0.062
    1UNL    H39   91   0.630   0.445  -0.015
    1UNL    H40   92   0.643   0.455   0.152
    1UNL    H41   93   0.529  -0.040   0.088
    1UNL    H42   94   0.496  -0.259  -0.194
    1UNL    H43   95   0.634  -0.244  -0.096
    1UNL    H44   96   0.460  -0.363   0.031
    1UNL    H45   97   0.501  -0.208   0.106
    1UNL    H46   98   0.553  -0.022  -0.326
    1UNL    H47   99   0.403  -0.078  -0.286
    1UNL    H48  100  -0.289  -0.302   0.080
    1UNL    H49  101  -0.197  -0.166   0.154
    1UNL    H50  102  -0.471  -0.175   0.112
    1UNL    H51  103  -0.305  -0.047   0.262
    1UNL    H52  104  -0.761  -0.111   0.361
    1UNL    H53  105  -0.615  -0.058   0.446
    1UNL    H54  106  -0.726   0.057   0.365
   0.00000   0.00000   0.00000   0.00000   0.00000   0.00000   0.00000   0.00000   0.00000
Generated with MDTraj, t= 39.0
 106
    1UNL     C1    1  -0.689  -0.098   0.014
    1UNL     C2    2  -0.591  -0.116  -0.095
    1UNL     C3    3  -0.459  -0.052  -0.061
    1UNL     C4    4  -0.471   0.098  -0.073
    1UNL     N1    5  -0.364   0.181  -0.013
    1UNL     C5    6  -0.419   0.316   0.006
    1UNL     C6    7  -0.302   0.130   0.118
    1UNL     C7    8  -0.151   0.109   0.095
    1UNL     C8    9  -0.127   0.076  -0.056
    1UNL     C9   10  -0.138  -0.045  -0.118
    1UNL     N2   11  -0.091  -0.031  -0.250
    1UNL    C10   12  -0.055   0.103  -0.263
    1UNL    C11   13   0.012   0.167  -0.370
    1UNL    C12   14   0.057   0.293  -0.354
    1UNL    C13   15   0.041   0.361  -0.231
    1UNL    C14   16  -0.028   0.298  -0.128
    1UNL    C15   17  -0.081   0.172  -0.146
    1UNL    C16   18  -0.168  -0.183  -0.061
    1UNL    C17   19  -0.047  -0.268  -0.034
    1UNL    C18   20  -0.068  -0.407  -0.020
    1UNL     O1   21  -0.193  -0.471  -0.018
    1UNL    C19   22  -0.200  -0.610  -0.045
    1UNL    C20   23   0.051  -0.489  -0.015
    1UNL    C21   24   0.178  -0.436  -0.016
    1UNL    C22   25   0.195  -0.297  -0.011
    1UNL    C23   26   0.316  -0.214   0.002
    1UNL    C24   27   0.274  -0.084  -0.006
    1UNL     N3   28   0.136  -0.087  -0.034
    1UNL    C25   29   0.089  -0.217  -0.036
    1UNL    C26   30   0.346   0.045   0.001
    1UNL    C27   31   0.308   0.118   0.130
    1UNL     O2   32   0.366   0.082   0.233
    1UNL     O3   33   0.202   0.203   0.137
    1UNL    C28   34   0.163   0.220   0.279
    1UNL    C29   35   0.301   0.135  -0.126
    1UNL    C30   36   0.421   0.135  -0.229
    1UNL    C31   37   0.543   0.210  -0.166
    1UNL    C32   38   0.578   0.158  -0.026
    1UNL    C33   39   0.552   0.247   0.094
    1UNL    C34   40   0.662   0.357   0.102
    1UNL    C35   41   0.502   0.025  -0.004
    1UNL     N4   42   0.520  -0.065  -0.127
    1UNL    C36   43   0.539  -0.210  -0.112
    1UNL    C37   44   0.457  -0.263   0.008
    1UNL    C38   45   0.454  -0.011  -0.256
    1UNL    C39   46  -0.258  -0.190   0.066
    1UNL    C40   47  -0.395  -0.109   0.071
    1UNL    C41   48  -0.369  -0.001   0.177
    1UNL    C42   49  -0.488   0.025   0.271
    1UNL     O4   50  -0.492   0.140   0.309
    1UNL     O5   51  -0.580  -0.064   0.297
    1UNL    C43   52  -0.688  -0.007   0.361
    1UNL     H1   53  -0.791  -0.144  -0.006
    1UNL     H2   54  -0.712   0.010   0.029
    1UNL     H3   55  -0.661  -0.145   0.107
    1UNL     H4   56  -0.629  -0.079  -0.190
    1UNL     H5   57  -0.590  -0.222  -0.127
    1UNL     H6   58  -0.388  -0.080  -0.149
    1UNL     H7   59  -0.487   0.126  -0.174
    1UNL     H8   60  -0.563   0.127  -0.019
    1UNL     H9   61  -0.503   0.317   0.078
    1UNL    H10   62  -0.440   0.367  -0.099
    1UNL    H11   63  -0.346   0.377   0.057
    1UNL    H12   64  -0.333   0.203   0.193
    1UNL    H13   65  -0.088   0.203   0.115
    1UNL    H14   66  -0.117   0.031   0.172
    1UNL    H15   67  -0.082  -0.103  -0.322
    1UNL    H16   68   0.029   0.108  -0.463
    1UNL    H17   69   0.085   0.336  -0.451
    1UNL    H18   70   0.088   0.452  -0.205
    1UNL    H19   71  -0.036   0.344  -0.030
    1UNL    H20   72  -0.216  -0.238  -0.145
    1UNL    H21   73  -0.296  -0.641  -0.092
    1UNL    H22   74  -0.112  -0.639  -0.103
    1UNL    H23   75  -0.187  -0.649   0.050
    1UNL    H24   76   0.040  -0.593  -0.010
    1UNL    H25   77   0.259  -0.501   0.005
    1UNL    H26   78   0.083  -0.003  -0.049
    1UNL    H27   79   0.249   0.272   0.321
    1UNL    H28   80   0.084   0.289   0.283
    1UNL    H29   81   0.128   0.125   0.319
    1UNL    H30   82   0.214   0.105  -0.177
    1UNL    H31   83   0.265   0.240  -0.088
    1UNL    H32   84   0.398   0.178  -0.325
    1UNL    H33   85   0.617   0.197  -0.238
    1UNL    H34   86   0.521   0.316  -0.169
    1UNL    H35   87   0.684   0.148  -0.023
    1UNL    H36   88   0.552   0.190   0.191
    1UNL    H37   89   0.459   0.296   0.078
    1UNL    H38   90   0.762   0.313   0.131
    1UNL    H39   91   0.671   0.400   0.008
    1UNL    H40   92   0.635   0.441   0.167
    1UNL    H41   93   0.528  -0.016   0.098
    1UNL    H42   94   0.502  -0.271  -0.193
    1UNL    H43   95   0.645  -0.236  -0.099
    1UNL    H44   96   0.465  -0.372   0.013
    1UNL    H45   97   0.509  -0.227   0.096
    1UNL    H46   98   0.515  -0.025  -0.343
    1UNL    H47   99   0.374  -0.085  -0.270
    1UNL    H48  100  -0.290  -0.294   0.073
    1UNL    H49  101  -0.203  -0.157   0.159
    1UNL    H50  102  -0.468  -0.175   0.119
    1UNL    H51  103  -0.297  -0.028   0.248
    1UNL    H52  104  -0.766  -0.082   0.380
    1UNL    H53  105  -0.657   0.025   0.462
    1UNL    H54  106  -0.732   0.074   0.305
   0.00000   0.00000   0.00000   0.00000   0.00000   0.00000   0.00000   0.00000   0.00000
Generated with MDTraj, t= 40.0
 106
    1UNL     C1    1  -0.708  -0.152   0.009
    1UNL     C2    2  -0.571  -0.161  -0.064
    1UNL     C3    3  -0.460  -0.057  -0.031
    1UNL     C4    4  -0.506   0.087  -0.023
    1UNL     N1    5  -0.374   0.165  -0.009
    1UNL     C5    6  -0.389   0.309  -0.038
    1UNL     C6    7  -0.298   0.140   0.120
    1UNL     C7    8  -0.153   0.114   0.101
    1UNL     C8    9  -0.114   0.082  -0.043
    1UNL     C9   10  -0.141  -0.037  -0.111
    1UNL     N2   11  -0.096  -0.024  -0.240
    1UNL    C10   12  -0.051   0.107  -0.261
    1UNL    C11   13   0.007   0.168  -0.375
    1UNL    C12   14   0.043   0.304  -0.368
    1UNL    C13   15   0.028   0.375  -0.243
    1UNL    C14   16  -0.010   0.308  -0.125
    1UNL    C15   17  -0.056   0.174  -0.140
    1UNL    C16   18  -0.171  -0.175  -0.058
    1UNL    C17   19  -0.045  -0.266  -0.040
    1UNL    C18   20  -0.063  -0.399  -0.045
    1UNL     O1   21  -0.193  -0.464  -0.075
    1UNL    C19   22  -0.216  -0.589  -0.019
    1UNL    C20   23   0.047  -0.487  -0.020
    1UNL    C21   24   0.170  -0.435  -0.006
    1UNL    C22   25   0.195  -0.296  -0.004
    1UNL    C23   26   0.320  -0.226   0.002
    1UNL    C24   27   0.283  -0.095  -0.015
    1UNL     N3   28   0.145  -0.089  -0.037
    1UNL    C25   29   0.083  -0.212  -0.031
    1UNL    C26   30   0.342   0.039  -0.001
    1UNL    C27   31   0.296   0.086   0.132
    1UNL     O2   32   0.341   0.041   0.238
    1UNL     O3   33   0.197   0.180   0.133
    1UNL    C28   34   0.168   0.211   0.267
    1UNL    C29   35   0.302   0.131  -0.121
    1UNL    C30   36   0.414   0.144  -0.223
    1UNL    C31   37   0.533   0.231  -0.152
    1UNL    C32   38   0.581   0.165  -0.026
    1UNL    C33   39   0.572   0.260   0.100
    1UNL    C34   40   0.692   0.356   0.100
    1UNL    C35   41   0.501   0.029  -0.003
    1UNL     N4   42   0.536  -0.056  -0.128
    1UNL    C36   43   0.542  -0.205  -0.120
    1UNL    C37   44   0.465  -0.278  -0.007
    1UNL    C38   45   0.470   0.001  -0.246
    1UNL    C39   46  -0.261  -0.192   0.076
    1UNL    C40   47  -0.386  -0.102   0.099
    1UNL    C41   48  -0.365   0.023   0.196
    1UNL    C42   49  -0.499   0.059   0.242
    1UNL     O4   50  -0.537   0.175   0.260
    1UNL     O5   51  -0.578  -0.052   0.288
    1UNL    C43   52  -0.684  -0.016   0.373
    1UNL     H1   53  -0.771  -0.245  -0.009
    1UNL     H2   54  -0.766  -0.065  -0.034
    1UNL     H3   55  -0.696  -0.150   0.112
    1UNL     H4   56  -0.597  -0.184  -0.166
    1UNL     H5   57  -0.525  -0.259  -0.043
    1UNL     H6   58  -0.384  -0.063  -0.123
    1UNL     H7   59  -0.562   0.121  -0.107
    1UNL     H8   60  -0.574   0.097   0.062
    1UNL     H9   61  -0.422   0.352   0.060
    1UNL    H10   62  -0.446   0.340  -0.137
    1UNL    H11   63  -0.295   0.359  -0.037
    1UNL    H12   64  -0.320   0.230   0.175
    1UNL    H13   65  -0.090   0.198   0.149
    1UNL    H14   66  -0.116   0.024   0.162
    1UNL    H15   67  -0.094  -0.098  -0.310
    1UNL    H16   68   0.015   0.104  -0.462
    1UNL    H17   69   0.090   0.365  -0.445
    1UNL    H18   70   0.045   0.485  -0.244
    1UNL    H19   71   0.020   0.359  -0.032
    1UNL    H20   72  -0.228  -0.220  -0.140
    1UNL    H21   73  -0.324  -0.606  -0.016
    1UNL    H22   74  -0.162  -0.661  -0.077
    1UNL    H23   75  -0.175  -0.584   0.072
    1UNL    H24   76   0.035  -0.595  -0.008
    1UNL    H25   77   0.254  -0.499   0.014
    1UNL    H26   78   0.092  -0.000  -0.038
    1UNL    H27   79   0.264   0.236   0.315
    1UNL    H28   80   0.114   0.303   0.250
    1UNL    H29   81   0.113   0.131   0.317
    1UNL    H30   82   0.217   0.096  -0.172
    1UNL    H31   83   0.261   0.236  -0.087
    1UNL    H32   84   0.388   0.196  -0.312
    1UNL    H33   85   0.620   0.230  -0.219
    1UNL    H34   86   0.502   0.334  -0.147
    1UNL    H35   87   0.680   0.127  -0.038
    1UNL    H36   88   0.575   0.197   0.194
    1UNL    H37   89   0.482   0.316   0.099
    1UNL    H38   90   0.787   0.298   0.097
    1UNL    H39   91   0.691   0.418   0.014
    1UNL    H40   92   0.696   0.428   0.182
    1UNL    H41   93   0.539  -0.030   0.085
    1UNL    H42   94   0.497  -0.246  -0.208
    1UNL    H43   95   0.646  -0.245  -0.122
    1UNL    H44   96   0.466  -0.389  -0.008
    1UNL    H45   97   0.518  -0.257   0.084
    1UNL    H46   98   0.551  -0.005  -0.316
    1UNL    H47   99   0.392  -0.071  -0.278
    1UNL    H48  100  -0.295  -0.297   0.075
    1UNL    H49  101  -0.188  -0.182   0.162
    1UNL    H50  102  -0.461  -0.167   0.148
    1UNL    H51  103  -0.301  -0.001   0.275
    1UNL    H52  104  -0.727  -0.104   0.428
    1UNL    H53  105  -0.642   0.045   0.456
    1UNL    H54  106  -0.762   0.034   0.319
   0.00000   0.00000   0.00000   0.00000   0.00000   0.00000   0.00000   0.00000   0.00000
Generated with MDTraj, t= 41.0
 106
    1UNL     C1    1  -0.650  -0.163   0.030
    1UNL     C2    2  -0.537  -0.184  -0.067
    1UNL     C3    3  -0.432  -0.077  -0.036
    1UNL     C4    4  -0.481   0.066  -0.066
    1UNL     N1    5  -0.373   0.163  -0.028
    1UNL     C5    6  -0.389   0.297  -0.081
    1UNL     C6    7  -0.322   0.138   0.114
    1UNL     C7    8  -0.167   0.141   0.102
    1UNL     C8    9  -0.125   0.091  -0.036
    1UNL     C9   10  -0.137  -0.034  -0.096
    1UNL     N2   11  -0.101  -0.024  -0.230
    1UNL    C10   12  -0.056   0.099  -0.252
    1UNL    C11   13   0.002   0.156  -0.367
    1UNL    C12   14   0.034   0.289  -0.357
    1UNL    C13   15   0.021   0.370  -0.238
    1UNL    C14   16  -0.036   0.309  -0.126
    1UNL    C15   17  -0.078   0.177  -0.136
    1UNL    C16   18  -0.163  -0.175  -0.042
    1UNL    C17   19  -0.048  -0.261  -0.042
    1UNL    C18   20  -0.077  -0.398  -0.055
    1UNL     O1   21  -0.207  -0.454  -0.073
    1UNL    C19   22  -0.247  -0.569  -0.005
    1UNL    C20   23   0.040  -0.483  -0.053
    1UNL    C21   24   0.168  -0.436  -0.056
    1UNL    C22   25   0.194  -0.296  -0.039
    1UNL    C23   26   0.313  -0.215  -0.022
    1UNL    C24   27   0.269  -0.087   0.003
    1UNL     N3   28   0.130  -0.081  -0.014
    1UNL    C25   29   0.083  -0.215  -0.033
    1UNL    C26   30   0.347   0.040  -0.003
    1UNL    C27   31   0.305   0.107   0.130
    1UNL     O2   32   0.360   0.059   0.228
    1UNL     O3   33   0.212   0.200   0.120
    1UNL    C28   34   0.170   0.224   0.256
    1UNL    C29   35   0.311   0.125  -0.122
    1UNL    C30   36   0.434   0.144  -0.214
    1UNL    C31   37   0.541   0.230  -0.132
    1UNL    C32   38   0.585   0.145  -0.011
    1UNL    C33   39   0.579   0.229   0.120
    1UNL    C34   40   0.664   0.348   0.118
    1UNL    C35   41   0.503   0.010  -0.000
    1UNL     N4   42   0.527  -0.064  -0.129
    1UNL    C36   43   0.527  -0.212  -0.127
    1UNL    C37   44   0.445  -0.270  -0.020
    1UNL    C38   45   0.493   0.009  -0.250
    1UNL    C39   46  -0.232  -0.173   0.098
    1UNL    C40   47  -0.366  -0.107   0.103
    1UNL    C41   48  -0.370   0.018   0.199
    1UNL    C42   49  -0.503   0.051   0.266
    1UNL     O4   50  -0.548   0.162   0.250
    1UNL     O5   51  -0.569  -0.041   0.337
    1UNL    C43   52  -0.695   0.004   0.365
    1UNL     H1   53  -0.749  -0.205  -0.001
    1UNL     H2   54  -0.668  -0.053   0.044
    1UNL     H3   55  -0.633  -0.211   0.123
    1UNL     H4   56  -0.563  -0.172  -0.170
    1UNL     H5   57  -0.504  -0.288  -0.068
    1UNL     H6   58  -0.343  -0.079  -0.113
    1UNL     H7   59  -0.515   0.083  -0.166
    1UNL     H8   60  -0.560   0.092   0.005
    1UNL     H9   61  -0.489   0.342  -0.052
    1UNL    H10   62  -0.359   0.294  -0.189
    1UNL    H11   63  -0.328   0.369  -0.027
    1UNL    H12   64  -0.360   0.223   0.168
    1UNL    H13   65  -0.115   0.242   0.115
    1UNL    H14   66  -0.118   0.084   0.185
    1UNL    H15   67  -0.077  -0.107  -0.285
    1UNL    H16   68   0.017   0.101  -0.456
    1UNL    H17   69   0.067   0.329  -0.450
    1UNL    H18   70   0.060   0.467  -0.234
    1UNL    H19   71  -0.045   0.353  -0.031
    1UNL    H20   72  -0.238  -0.212  -0.108
    1UNL    H21   73  -0.353  -0.560  -0.003
    1UNL    H22   74  -0.213  -0.652  -0.061
    1UNL    H23   75  -0.207  -0.566   0.089
    1UNL    H24   76   0.024  -0.590  -0.032
    1UNL    H25   77   0.253  -0.504  -0.078
    1UNL    H26   78   0.071   0.004   0.002
    1UNL    H27   79   0.256   0.270   0.310
    1UNL    H28   80   0.078   0.285   0.259
    1UNL    H29   81   0.166   0.126   0.309
    1UNL    H30   82   0.225   0.088  -0.175
    1UNL    H31   83   0.266   0.225  -0.086
    1UNL    H32   84   0.409   0.190  -0.307
    1UNL    H33   85   0.616   0.263  -0.211
    1UNL    H34   86   0.490   0.311  -0.089
    1UNL    H35   87   0.685   0.115  -0.027
    1UNL    H36   88   0.610   0.166   0.209
    1UNL    H37   89   0.477   0.253   0.139
    1UNL    H38   90   0.762   0.327   0.077
    1UNL    H39   91   0.625   0.427   0.054
    1UNL    H40   92   0.683   0.402   0.211
    1UNL    H41   93   0.525  -0.042   0.096
    1UNL    H42   94   0.494  -0.253  -0.220
    1UNL    H43   95   0.633  -0.248  -0.117
    1UNL    H44   96   0.444  -0.383  -0.023
    1UNL    H45   97   0.488  -0.265   0.079
    1UNL    H46   98   0.579   0.008  -0.315
    1UNL    H47   99   0.412  -0.049  -0.300
    1UNL    H48  100  -0.224  -0.279   0.131
    1UNL    H49  101  -0.163  -0.124   0.173
    1UNL    H50  102  -0.429  -0.179   0.157
    1UNL    H51  103  -0.287   0.004   0.260
    1UNL    H52  104  -0.751  -0.083   0.409
    1UNL    H53  105  -0.690   0.073   0.452
    1UNL    H54  106  -0.742   0.041   0.275
   0.00000   0.00000   0.00000   0.00000   0.00000   0.00000   0.00000   0.00000   0.00000
Generated with MDTraj, t= 42.0
 106
    1UNL     C1    1  -0.691  -0.220   0.046
    1UNL     C2    2  -0.583  -0.180  -0.055
    1UNL     C3    3  -0.470  -0.077  -0.021
    1UNL     C4    4  -0.517   0.070  -0.037
    1UNL     N1    5  -0.392   0.157  -0.028
    1UNL     C5    6  -0.401   0.299  -0.070
    1UNL     C6    7  -0.329   0.153   0.106
    1UNL     C7    8  -0.172   0.150   0.093
    1UNL     C8    9  -0.117   0.093  -0.035
    1UNL     C9   10  -0.116  -0.033  -0.091
    1UNL     N2   11  -0.067  -0.025  -0.216
    1UNL    C10   12  -0.041   0.106  -0.252
    1UNL    C11   13   0.004   0.159  -0.374
    1UNL    C12   14   0.034   0.292  -0.375
    1UNL    C13   15   0.020   0.373  -0.257
    1UNL    C14   16  -0.028   0.323  -0.139
    1UNL    C15   17  -0.064   0.184  -0.136
    1UNL    C16   18  -0.171  -0.167  -0.037
    1UNL    C17   19  -0.043  -0.262  -0.030
    1UNL    C18   20  -0.068  -0.396  -0.057
    1UNL     O1   21  -0.201  -0.443  -0.055
    1UNL    C19   22  -0.224  -0.579   0.005
    1UNL    C20   23   0.038  -0.482  -0.088
    1UNL    C21   24   0.167  -0.438  -0.091
    1UNL    C22   25   0.197  -0.307  -0.044
    1UNL    C23   26   0.323  -0.239  -0.032
    1UNL    C24   27   0.284  -0.104  -0.004
    1UNL     N3   28   0.145  -0.099   0.016
    1UNL    C25   29   0.088  -0.218  -0.027
    1UNL    C26   30   0.357   0.029   0.004
    1UNL    C27   31   0.305   0.095   0.129
    1UNL     O2   32   0.361   0.083   0.236
    1UNL     O3   33   0.195   0.185   0.117
    1UNL    C28   34   0.186   0.271   0.223
    1UNL    C29   35   0.315   0.122  -0.117
    1UNL    C30   36   0.438   0.157  -0.205
    1UNL    C31   37   0.549   0.229  -0.118
    1UNL    C32   38   0.591   0.140  -0.000
    1UNL    C33   39   0.578   0.217   0.126
    1UNL    C34   40   0.678   0.336   0.144
    1UNL    C35   41   0.509   0.006   0.004
    1UNL     N4   42   0.532  -0.066  -0.128
    1UNL    C36   43   0.545  -0.212  -0.140
    1UNL    C37   44   0.461  -0.290  -0.045
    1UNL    C38   45   0.499   0.015  -0.247
    1UNL    C39   46  -0.243  -0.159   0.098
    1UNL    C40   47  -0.386  -0.099   0.110
    1UNL    C41   48  -0.378   0.038   0.194
    1UNL    C42   49  -0.513   0.067   0.248
    1UNL     O4   50  -0.570   0.172   0.229
    1UNL     O5   51  -0.567  -0.044   0.316
    1UNL    C43   52  -0.681  -0.009   0.389
    1UNL     H1   53  -0.742  -0.312   0.017
    1UNL     H2   54  -0.762  -0.138   0.062
    1UNL     H3   55  -0.642  -0.251   0.142
    1UNL     H4   56  -0.633  -0.141  -0.141
    1UNL     H5   57  -0.537  -0.268  -0.101
    1UNL     H6   58  -0.397  -0.072  -0.107
    1UNL     H7   59  -0.550   0.086  -0.138
    1UNL     H8   60  -0.591   0.098   0.035
    1UNL     H9   61  -0.444   0.367   0.011
    1UNL    H10   62  -0.456   0.302  -0.160
    1UNL    H11   63  -0.301   0.348  -0.087
    1UNL    H12   64  -0.375   0.241   0.152
    1UNL    H13   65  -0.146   0.259   0.111
    1UNL    H14   66  -0.121   0.091   0.174
    1UNL    H15   67  -0.091  -0.100  -0.283
    1UNL    H16   68   0.014   0.087  -0.460
    1UNL    H17   69   0.074   0.334  -0.469
    1UNL    H18   70   0.047   0.480  -0.256
    1UNL    H19   71  -0.059   0.390  -0.057
    1UNL    H20   72  -0.234  -0.202  -0.114
    1UNL    H21   73  -0.323  -0.576   0.036
    1UNL    H22   74  -0.213  -0.650  -0.069
    1UNL    H23   75  -0.164  -0.597   0.090
    1UNL    H24   76   0.018  -0.582  -0.110
    1UNL    H25   77   0.242  -0.494  -0.133
    1UNL    H26   78   0.090  -0.013   0.016
    1UNL    H27   79   0.286   0.285   0.271
    1UNL    H28   80   0.135   0.362   0.180
    1UNL    H29   81   0.130   0.214   0.301
    1UNL    H30   82   0.225   0.081  -0.167
    1UNL    H31   83   0.275   0.220  -0.085
    1UNL    H32   84   0.404   0.217  -0.286
    1UNL    H33   85   0.644   0.254  -0.182
    1UNL    H34   86   0.495   0.312  -0.088
    1UNL    H35   87   0.691   0.107  -0.014
    1UNL    H36   88   0.579   0.148   0.216
    1UNL    H37   89   0.482   0.262   0.138
    1UNL    H38   90   0.777   0.304   0.159
    1UNL    H39   91   0.672   0.393   0.048
    1UNL    H40   92   0.648   0.403   0.224
    1UNL    H41   93   0.541  -0.059   0.087
    1UNL    H42   94   0.513  -0.237  -0.238
    1UNL    H43   95   0.653  -0.241  -0.138
    1UNL    H44   96   0.451  -0.400  -0.069
    1UNL    H45   97   0.503  -0.306   0.052
    1UNL    H46   98   0.582   0.041  -0.311
    1UNL    H47   99   0.432  -0.043  -0.313
    1UNL    H48  100  -0.249  -0.263   0.138
    1UNL    H49  101  -0.176  -0.104   0.171
    1UNL    H50  102  -0.442  -0.172   0.172
    1UNL    H51  103  -0.313   0.031   0.275
    1UNL    H52  104  -0.698  -0.083   0.470
    1UNL    H53  105  -0.658   0.082   0.447
    1UNL    H54  106  -0.762  -0.004   0.320
   0.00000   0.00000   0.00000   0.00000   0.00000   0.00000   0.00000   0.00000   0.00000
Generated with MDTraj, t= 43.0
 106
    1UNL     C1    1  -0.677  -0.161   0.064
    1UNL     C2    2  -0.567  -0.188  -0.039
    1UNL     C3    3  -0.456  -0.084  -0.025
    1UNL     C4    4  -0.504   0.053  -0.064
    1UNL     N1    5  -0.402   0.155  -0.036
    1UNL     C5    6  -0.448   0.287  -0.078
    1UNL     C6    7  -0.336   0.150   0.106
    1UNL     C7    8  -0.180   0.141   0.090
    1UNL     C8    9  -0.138   0.098  -0.047
    1UNL     C9   10  -0.146  -0.031  -0.102
    1UNL     N2   11  -0.080  -0.029  -0.226
    1UNL    C10   12  -0.038   0.102  -0.249
    1UNL    C11   13   0.030   0.153  -0.360
    1UNL    C12   14   0.063   0.289  -0.358
    1UNL    C13   15   0.013   0.371  -0.256
    1UNL    C14   16  -0.062   0.323  -0.152
    1UNL    C15   17  -0.075   0.186  -0.141
    1UNL    C16   18  -0.176  -0.168  -0.047
    1UNL    C17   19  -0.052  -0.260  -0.048
    1UNL    C18   20  -0.076  -0.397  -0.062
    1UNL     O1   21  -0.205  -0.442  -0.054
    1UNL    C19   22  -0.210  -0.588  -0.019
    1UNL    C20   23   0.040  -0.477  -0.068
    1UNL    C21   24   0.164  -0.433  -0.059
    1UNL    C22   25   0.189  -0.297  -0.039
    1UNL    C23   26   0.311  -0.225  -0.022
    1UNL    C24   27   0.277  -0.092  -0.010
    1UNL     N3   28   0.137  -0.084  -0.016
    1UNL    C25   29   0.082  -0.211  -0.033
    1UNL    C26   30   0.361   0.040  -0.007
    1UNL    C27   31   0.309   0.111   0.120
    1UNL     O2   32   0.351   0.078   0.225
    1UNL     O3   33   0.212   0.205   0.109
    1UNL    C28   34   0.167   0.243   0.231
    1UNL    C29   35   0.325   0.122  -0.135
    1UNL    C30   36   0.448   0.155  -0.208
    1UNL    C31   37   0.541   0.244  -0.115
    1UNL    C32   38   0.591   0.145   0.004
    1UNL    C33   39   0.592   0.213   0.137
    1UNL    C34   40   0.713   0.306   0.159
    1UNL    C35   41   0.509   0.010  -0.000
    1UNL     N4   42   0.544  -0.069  -0.125
    1UNL    C36   43   0.540  -0.221  -0.141
    1UNL    C37   44   0.451  -0.287  -0.031
    1UNL    C38   45   0.527   0.019  -0.244
    1UNL    C39   46  -0.235  -0.174   0.092
    1UNL    C40   47  -0.379  -0.103   0.110
    1UNL    C41   48  -0.378   0.030   0.192
    1UNL    C42   49  -0.514   0.061   0.260
    1UNL     O4   50  -0.559   0.173   0.258
    1UNL     O5   51  -0.564  -0.043   0.329
    1UNL    C43   52  -0.686  -0.005   0.397
    1UNL     H1   53  -0.775  -0.177   0.025
    1UNL     H2   54  -0.671  -0.062   0.104
    1UNL     H3   55  -0.662  -0.239   0.149
    1UNL     H4   56  -0.610  -0.186  -0.136
    1UNL     H5   57  -0.522  -0.286  -0.032
    1UNL     H6   58  -0.388  -0.113  -0.103
    1UNL     H7   59  -0.527   0.057  -0.169
    1UNL     H8   60  -0.590   0.080  -0.010
    1UNL     H9   61  -0.518   0.333  -0.003
    1UNL    H10   62  -0.498   0.282  -0.168
    1UNL    H11   63  -0.355   0.355  -0.079
    1UNL    H12   64  -0.366   0.241   0.162
    1UNL    H13   65  -0.140   0.245   0.107
    1UNL    H14   66  -0.143   0.076   0.173
    1UNL    H15   67  -0.034  -0.114  -0.263
    1UNL    H16   68   0.053   0.093  -0.440
    1UNL    H17   69   0.133   0.336  -0.422
    1UNL    H18   70   0.012   0.477  -0.273
    1UNL    H19   71  -0.116   0.380  -0.080
    1UNL    H20   72  -0.233  -0.216  -0.122
    1UNL    H21   73  -0.308  -0.605   0.004
    1UNL    H22   74  -0.184  -0.642  -0.104
    1UNL    H23   75  -0.150  -0.618   0.067
    1UNL    H24   76   0.026  -0.588  -0.060
    1UNL    H25   77   0.255  -0.500  -0.063
    1UNL    H26   78   0.076  -0.005  -0.012
    1UNL    H27   79   0.240   0.304   0.287
    1UNL    H28   80   0.065   0.285   0.222
    1UNL    H29   81   0.169   0.148   0.290
    1UNL    H30   82   0.261   0.068  -0.211
    1UNL    H31   83   0.261   0.206  -0.113
    1UNL    H32   84   0.424   0.200  -0.302
    1UNL    H33   85   0.628   0.279  -0.185
    1UNL    H34   86   0.485   0.324  -0.075
    1UNL    H35   87   0.694   0.125  -0.015
    1UNL    H36   88   0.604   0.136   0.220
    1UNL    H37   89   0.498   0.256   0.165
    1UNL    H38   90   0.801   0.262   0.124
    1UNL    H39   91   0.693   0.394   0.089
    1UNL    H40   92   0.728   0.341   0.260
    1UNL    H41   93   0.521  -0.048   0.093
    1UNL    H42   94   0.494  -0.241  -0.233
    1UNL    H43   95   0.643  -0.264  -0.147
    1UNL    H44   96   0.445  -0.397  -0.058
    1UNL    H45   97   0.493  -0.299   0.066
    1UNL    H46   98   0.624   0.048  -0.282
    1UNL    H47   99   0.479  -0.023  -0.336
    1UNL    H48  100  -0.248  -0.279   0.123
    1UNL    H49  101  -0.168  -0.122   0.167
    1UNL    H50  102  -0.437  -0.174   0.174
    1UNL    H51  103  -0.310   0.036   0.270
    1UNL    H52  104  -0.730  -0.090   0.452
    1UNL    H53  105  -0.659   0.064   0.477
    1UNL    H54  106  -0.748   0.034   0.321
   0.00000   0.00000   0.00000   0.00000   0.00000   0.00000   0.00000   0.00000   0.00000
Generated with MDTraj, t= 44.0
 106
    1UNL     C1    1  -0.698  -0.167   0.073
    1UNL     C2    2  -0.581  -0.194  -0.028
    1UNL     C3    3  -0.472  -0.082  -0.025
    1UNL     C4    4  -0.529   0.057  -0.026
    1UNL     N1    5  -0.418   0.161  -0.015
    1UNL     C5    6  -0.443   0.294  -0.069
    1UNL     C6    7  -0.333   0.142   0.106
    1UNL     C7    8  -0.183   0.139   0.077
    1UNL     C8    9  -0.146   0.091  -0.059
    1UNL     C9   10  -0.140  -0.031  -0.118
    1UNL     N2   11  -0.069  -0.028  -0.239
    1UNL    C10   12  -0.029   0.100  -0.257
    1UNL    C11   13   0.030   0.157  -0.368
    1UNL    C12   14   0.066   0.289  -0.366
    1UNL    C13   15   0.035   0.369  -0.257
    1UNL    C14   16  -0.043   0.318  -0.157
    1UNL    C15   17  -0.082   0.178  -0.155
    1UNL    C16   18  -0.175  -0.164  -0.057
    1UNL    C17   19  -0.050  -0.254  -0.046
    1UNL    C18   20  -0.070  -0.395  -0.038
    1UNL     O1   21  -0.195  -0.441  -0.064
    1UNL    C19   22  -0.223  -0.584  -0.060
    1UNL    C20   23   0.043  -0.479  -0.017
    1UNL    C21   24   0.168  -0.431  -0.006
    1UNL    C22   25   0.193  -0.295  -0.018
    1UNL    C23   26   0.309  -0.216  -0.023
    1UNL    C24   27   0.272  -0.081  -0.028
    1UNL     N3   28   0.135  -0.078  -0.033
    1UNL    C25   29   0.084  -0.204  -0.033
    1UNL    C26   30   0.359   0.047  -0.025
    1UNL    C27   31   0.300   0.109   0.106
    1UNL     O2   32   0.347   0.078   0.212
    1UNL     O3   33   0.186   0.192   0.097
    1UNL    C28   34   0.161   0.246   0.224
    1UNL    C29   35   0.340   0.151  -0.131
    1UNL    C30   36   0.473   0.165  -0.213
    1UNL    C31   37   0.570   0.234  -0.110
    1UNL    C32   38   0.597   0.132   0.006
    1UNL    C33   39   0.605   0.197   0.145
    1UNL    C34   40   0.716   0.291   0.167
    1UNL    C35   41   0.509   0.014  -0.002
    1UNL     N4   42   0.552  -0.060  -0.128
    1UNL    C36   43   0.524  -0.207  -0.139
    1UNL    C37   44   0.448  -0.273  -0.021
    1UNL    C38   45   0.528   0.023  -0.248
    1UNL    C39   46  -0.247  -0.174   0.083
    1UNL    C40   47  -0.387  -0.109   0.108
    1UNL    C41   48  -0.378   0.015   0.195
    1UNL    C42   49  -0.507   0.049   0.263
    1UNL     O4   50  -0.551   0.161   0.256
    1UNL     O5   51  -0.570  -0.054   0.327
    1UNL    C43   52  -0.675  -0.005   0.401
    1UNL     H1   53  -0.739  -0.253   0.123
    1UNL     H2   54  -0.781  -0.114   0.030
    1UNL     H3   55  -0.663  -0.103   0.159
    1UNL     H4   56  -0.609  -0.201  -0.129
    1UNL     H5   57  -0.541  -0.293  -0.006
    1UNL     H6   58  -0.410  -0.098  -0.107
    1UNL     H7   59  -0.590   0.080  -0.111
    1UNL     H8   60  -0.595   0.074   0.054
    1UNL     H9   61  -0.536   0.338  -0.023
    1UNL    H10   62  -0.474   0.286  -0.169
    1UNL    H11   63  -0.359   0.367  -0.044
    1UNL    H12   64  -0.348   0.234   0.169
    1UNL    H13   65  -0.135   0.238   0.102
    1UNL    H14   66  -0.140   0.063   0.145
    1UNL    H15   67  -0.064  -0.103  -0.311
    1UNL    H16   68   0.070   0.102  -0.457
    1UNL    H17   69   0.117   0.339  -0.451
    1UNL    H18   70   0.070   0.470  -0.246
    1UNL    H19   71  -0.077   0.381  -0.076
    1UNL    H20   72  -0.240  -0.206  -0.126
    1UNL    H21   73  -0.322  -0.582  -0.094
    1UNL    H22   74  -0.169  -0.636  -0.133
    1UNL    H23   75  -0.221  -0.635   0.041
    1UNL    H24   76   0.018  -0.581  -0.006
    1UNL    H25   77   0.252  -0.495   0.008
    1UNL    H26   78   0.086   0.008  -0.051
    1UNL    H27   79   0.253   0.256   0.281
    1UNL    H28   80   0.100   0.336   0.232
    1UNL    H29   81   0.110   0.164   0.273
    1UNL    H30   82   0.247   0.123  -0.191
    1UNL    H31   83   0.313   0.243  -0.092
    1UNL    H32   84   0.473   0.236  -0.292
    1UNL    H33   85   0.668   0.271  -0.158
    1UNL    H34   86   0.507   0.314  -0.069
    1UNL    H35   87   0.695   0.094  -0.015
    1UNL    H36   88   0.614   0.108   0.212
    1UNL    H37   89   0.509   0.235   0.177
    1UNL    H38   90   0.814   0.255   0.152
    1UNL    H39   91   0.705   0.371   0.088
    1UNL    H40   92   0.713   0.344   0.261
    1UNL    H41   93   0.519  -0.052   0.085
    1UNL    H42   94   0.477  -0.231  -0.229
    1UNL    H43   95   0.624  -0.257  -0.146
    1UNL    H44   96   0.446  -0.385  -0.036
    1UNL    H45   97   0.497  -0.255   0.070
    1UNL    H46   98   0.613   0.031  -0.315
    1UNL    H47   99   0.444  -0.013  -0.313
    1UNL    H48  100  -0.245  -0.283   0.098
    1UNL    H49  101  -0.171  -0.142   0.159
    1UNL    H50  102  -0.445  -0.175   0.177
    1UNL    H51  103  -0.310   0.007   0.273
    1UNL    H52  104  -0.727  -0.099   0.433
    1UNL    H53  105  -0.637   0.039   0.495
    1UNL    H54  106  -0.732   0.054   0.335
   0.00000   0.00000   0.00000   0.00000   0.00000   0.00000   0.00000   0.00000   0.00000
Generated with MDTraj, t= 45.0
 106
    1UNL     C1    1  -0.709  -0.197   0.052
    1UNL     C2    2  -0.595  -0.189  -0.053
    1UNL     C3    3  -0.477  -0.093  -0.030
    1UNL     C4    4  -0.519   0.058  -0.040
    1UNL     N1    5  -0.401   0.151  -0.029
    1UNL     C5    6  -0.425   0.295  -0.067
    1UNL     C6    7  -0.329   0.142   0.102
    1UNL     C7    8  -0.175   0.147   0.083
    1UNL     C8    9  -0.141   0.102  -0.052
    1UNL     C9   10  -0.145  -0.029  -0.105
    1UNL     N2   11  -0.109  -0.020  -0.239
    1UNL    C10   12  -0.052   0.101  -0.269
    1UNL    C11   13   0.014   0.158  -0.376
    1UNL    C12   14   0.067   0.282  -0.373
    1UNL    C13   15   0.048   0.356  -0.257
    1UNL    C14   16  -0.017   0.314  -0.144
    1UNL    C15   17  -0.074   0.183  -0.152
    1UNL    C16   18  -0.178  -0.161  -0.039
    1UNL    C17   19  -0.054  -0.255  -0.040
    1UNL    C18   20  -0.073  -0.392  -0.023
    1UNL     O1   21  -0.207  -0.440  -0.048
    1UNL    C19   22  -0.211  -0.574  -0.092
    1UNL    C20   23   0.037  -0.478  -0.001
    1UNL    C21   24   0.164  -0.427  -0.019
    1UNL    C22   25   0.190  -0.289  -0.032
    1UNL    C23   26   0.309  -0.214  -0.026
    1UNL    C24   27   0.271  -0.081  -0.030
    1UNL     N3   28   0.136  -0.078  -0.035
    1UNL    C25   29   0.080  -0.206  -0.040
    1UNL    C26   30   0.361   0.048  -0.010
    1UNL    C27   31   0.301   0.117   0.112
    1UNL     O2   32   0.346   0.100   0.220
    1UNL     O3   33   0.197   0.200   0.090
    1UNL    C28   34   0.146   0.247   0.204
    1UNL    C29   35   0.342   0.140  -0.128
    1UNL    C30   36   0.478   0.154  -0.207
    1UNL    C31   37   0.573   0.231  -0.105
    1UNL    C32   38   0.602   0.129   0.011
    1UNL    C33   39   0.580   0.208   0.141
    1UNL    C34   40   0.700   0.299   0.168
    1UNL    C35   41   0.511   0.005   0.002
    1UNL     N4   42   0.557  -0.068  -0.120
    1UNL    C36   43   0.521  -0.214  -0.143
    1UNL    C37   44   0.448  -0.272  -0.025
    1UNL    C38   45   0.528   0.012  -0.241
    1UNL    C39   46  -0.245  -0.166   0.097
    1UNL    C40   47  -0.393  -0.109   0.104
    1UNL    C41   48  -0.377   0.022   0.189
    1UNL    C42   49  -0.498   0.055   0.274
    1UNL     O4   50  -0.545   0.168   0.278
    1UNL     O5   51  -0.545  -0.060   0.333
    1UNL    C43   52  -0.662  -0.025   0.411
    1UNL     H1   53  -0.808  -0.211   0.006
    1UNL     H2   54  -0.711  -0.106   0.112
    1UNL     H3   55  -0.691  -0.274   0.120
    1UNL     H4   56  -0.645  -0.159  -0.141
    1UNL     H5   57  -0.552  -0.287  -0.069
    1UNL     H6   58  -0.412  -0.115  -0.107
    1UNL     H7   59  -0.569   0.081  -0.132
    1UNL     H8   60  -0.585   0.085   0.039
    1UNL     H9   61  -0.460   0.353   0.022
    1UNL    H10   62  -0.511   0.316  -0.137
    1UNL    H11   63  -0.327   0.341  -0.088
    1UNL    H12   64  -0.353   0.240   0.152
    1UNL    H13   65  -0.136   0.250   0.098
    1UNL    H14   66  -0.119   0.079   0.153
    1UNL    H15   67  -0.093  -0.109  -0.290
    1UNL    H16   68   0.035   0.106  -0.467
    1UNL    H17   69   0.121   0.325  -0.454
    1UNL    H18   70   0.084   0.459  -0.263
    1UNL    H19   71  -0.017   0.370  -0.051
    1UNL    H20   72  -0.240  -0.203  -0.111
    1UNL    H21   73  -0.311  -0.598  -0.125
    1UNL    H22   74  -0.149  -0.587  -0.182
    1UNL    H23   75  -0.185  -0.652  -0.013
    1UNL    H24   76   0.029  -0.585   0.007
    1UNL    H25   77   0.250  -0.484   0.011
    1UNL    H26   78   0.078   0.003  -0.046
    1UNL    H27   79   0.217   0.311   0.256
    1UNL    H28   80   0.064   0.313   0.182
    1UNL    H29   81   0.115   0.163   0.263
    1UNL    H30   82   0.259   0.116  -0.203
    1UNL    H31   83   0.307   0.230  -0.090
    1UNL    H32   84   0.466   0.211  -0.295
    1UNL    H33   85   0.671   0.250  -0.161
    1UNL    H34   86   0.506   0.323  -0.074
    1UNL    H35   87   0.706   0.102   0.002
    1UNL    H36   88   0.573   0.138   0.226
    1UNL    H37   89   0.485   0.263   0.136
    1UNL    H38   90   0.788   0.240   0.195
    1UNL    H39   91   0.722   0.344   0.072
    1UNL    H40   92   0.678   0.375   0.244
    1UNL    H41   93   0.522  -0.047   0.098
    1UNL    H42   94   0.465  -0.232  -0.230
    1UNL    H43   95   0.613  -0.273  -0.165
    1UNL    H44   96   0.438  -0.383  -0.041
    1UNL    H45   97   0.503  -0.243   0.062
    1UNL    H46   98   0.620   0.024  -0.301
    1UNL    H47   99   0.452  -0.037  -0.306
    1UNL    H48  100  -0.248  -0.270   0.138
    1UNL    H49  101  -0.174  -0.116   0.168
    1UNL    H50  102  -0.454  -0.171   0.174
    1UNL    H51  103  -0.297   0.006   0.255
    1UNL    H52  104  -0.681  -0.104   0.490
    1UNL    H53  105  -0.646   0.071   0.463
    1UNL    H54  106  -0.740  -0.020   0.339
   0.00000   0.00000   0.00000   0.00000   0.00000   0.00000   0.00000   0.00000   0.00000
Generated with MDTraj, t= 46.0
 106
    1UNL     C1    1  -0.665  -0.181   0.049
    1UNL     C2    2  -0.560  -0.170  -0.066
    1UNL     C3    3  -0.449  -0.071  -0.040
    1UNL     C4    4  -0.510   0.075  -0.046
    1UNL     N1    5  -0.403   0.172  -0.017
    1UNL     C5    6  -0.404   0.304  -0.087
    1UNL     C6    7  -0.326   0.151   0.112
    1UNL     C7    8  -0.169   0.140   0.092
    1UNL     C8    9  -0.134   0.087  -0.047
    1UNL     C9   10  -0.152  -0.037  -0.101
    1UNL     N2   11  -0.116  -0.032  -0.232
    1UNL    C10   12  -0.065   0.097  -0.258
    1UNL    C11   13   0.004   0.152  -0.370
    1UNL    C12   14   0.045   0.282  -0.365
    1UNL    C13   15   0.036   0.354  -0.252
    1UNL    C14   16  -0.009   0.304  -0.136
    1UNL    C15   17  -0.068   0.174  -0.142
    1UNL    C16   18  -0.178  -0.178  -0.036
    1UNL    C17   19  -0.054  -0.258  -0.036
    1UNL    C18   20  -0.072  -0.400  -0.037
    1UNL     O1   21  -0.205  -0.451  -0.039
    1UNL    C19   22  -0.241  -0.565  -0.110
    1UNL    C20   23   0.039  -0.483  -0.052
    1UNL    C21   24   0.168  -0.432  -0.050
    1UNL    C22   25   0.189  -0.296  -0.039
    1UNL    C23   26   0.307  -0.216  -0.024
    1UNL    C24   27   0.267  -0.081  -0.022
    1UNL     N3   28   0.131  -0.083  -0.029
    1UNL    C25   29   0.080  -0.209  -0.028
    1UNL    C26   30   0.346   0.043  -0.016
    1UNL    C27   31   0.291   0.115   0.105
    1UNL     O2   32   0.335   0.091   0.216
    1UNL     O3   33   0.191   0.211   0.083
    1UNL    C28   34   0.155   0.263   0.208
    1UNL    C29   35   0.330   0.123  -0.149
    1UNL    C30   36   0.475   0.140  -0.217
    1UNL    C31   37   0.553   0.238  -0.116
    1UNL    C32   38   0.586   0.146   0.006
    1UNL    C33   39   0.570   0.218   0.139
    1UNL    C34   40   0.684   0.318   0.163
    1UNL    C35   41   0.497   0.014   0.005
    1UNL     N4   42   0.561  -0.070  -0.107
    1UNL    C36   43   0.548  -0.221  -0.100
    1UNL    C37   44   0.448  -0.267  -0.000
    1UNL    C38   45   0.540  -0.001  -0.237
    1UNL    C39   46  -0.241  -0.175   0.095
    1UNL    C40   47  -0.381  -0.098   0.099
    1UNL    C41   48  -0.376   0.030   0.192
    1UNL    C42   49  -0.501   0.047   0.274
    1UNL     O4   50  -0.554   0.156   0.277
    1UNL     O5   51  -0.548  -0.061   0.343
    1UNL    C43   52  -0.654  -0.023   0.431
    1UNL     H1   53  -0.728  -0.273   0.052
    1UNL     H2   54  -0.737  -0.097   0.047
    1UNL     H3   55  -0.621  -0.168   0.140
    1UNL     H4   56  -0.607  -0.145  -0.159
    1UNL     H5   57  -0.509  -0.266  -0.072
    1UNL     H6   58  -0.378  -0.077  -0.117
    1UNL     H7   59  -0.548   0.097  -0.144
    1UNL     H8   60  -0.580   0.087   0.035
    1UNL     H9   61  -0.508   0.334  -0.110
    1UNL    H10   62  -0.365   0.294  -0.198
    1UNL    H11   63  -0.353   0.376  -0.025
    1UNL    H12   64  -0.350   0.240   0.177
    1UNL    H13   65  -0.113   0.234   0.092
    1UNL    H14   66  -0.127   0.078   0.175
    1UNL    H15   67  -0.078  -0.112  -0.287
    1UNL    H16   68   0.024   0.101  -0.460
    1UNL    H17   69   0.102   0.326  -0.448
    1UNL    H18   70   0.070   0.454  -0.255
    1UNL    H19   71  -0.008   0.347  -0.040
    1UNL    H20   72  -0.238  -0.215  -0.113
    1UNL    H21   73  -0.354  -0.583  -0.107
    1UNL    H22   74  -0.213  -0.564  -0.221
    1UNL    H23   75  -0.196  -0.654  -0.064
    1UNL    H24   76   0.023  -0.592  -0.057
    1UNL    H25   77   0.249  -0.505  -0.027
    1UNL    H26   78   0.065  -0.007  -0.036
    1UNL    H27   79   0.243   0.321   0.240
    1UNL    H28   80   0.083   0.345   0.209
    1UNL    H29   81   0.125   0.187   0.279
    1UNL    H30   82   0.262   0.070  -0.221
    1UNL    H31   83   0.282   0.218  -0.142
    1UNL    H32   84   0.476   0.186  -0.311
    1UNL    H33   85   0.641   0.260  -0.184
    1UNL    H34   86   0.474   0.324  -0.087
    1UNL    H35   87   0.686   0.109  -0.012
    1UNL    H36   88   0.570   0.136   0.214
    1UNL    H37   89   0.472   0.268   0.145
    1UNL    H38   90   0.781   0.281   0.118
    1UNL    H39   91   0.661   0.405   0.110
    1UNL    H40   92   0.698   0.341   0.269
    1UNL    H41   93   0.516  -0.038   0.100
    1UNL    H42   94   0.517  -0.252  -0.195
    1UNL    H43   95   0.644  -0.279  -0.096
    1UNL    H44   96   0.439  -0.377  -0.025
    1UNL    H45   97   0.473  -0.244   0.102
    1UNL    H46   98   0.639   0.009  -0.285
    1UNL    H47   99   0.477  -0.060  -0.306
    1UNL    H48  100  -0.262  -0.276   0.133
    1UNL    H49  101  -0.172  -0.142   0.176
    1UNL    H50  102  -0.448  -0.164   0.159
    1UNL    H51  103  -0.297   0.010   0.260
    1UNL    H52  104  -0.683  -0.114   0.491
    1UNL    H53  105  -0.628   0.059   0.502
    1UNL    H54  106  -0.732   0.010   0.365
   0.00000   0.00000   0.00000   0.00000   0.00000   0.00000   0.00000   0.00000   0.00000
Generated with MDTraj, t= 47.0
 106
    1UNL     C1    1  -0.696  -0.141  -0.007
    1UNL     C2    2  -0.553  -0.179  -0.049
    1UNL     C3    3  -0.448  -0.073  -0.012
    1UNL     C4    4  -0.503   0.076  -0.009
    1UNL     N1    5  -0.383   0.165   0.004
    1UNL     C5    6  -0.374   0.298  -0.064
    1UNL     C6    7  -0.303   0.146   0.132
    1UNL     C7    8  -0.159   0.132   0.097
    1UNL     C8    9  -0.128   0.093  -0.044
    1UNL     C9   10  -0.132  -0.037  -0.101
    1UNL     N2   11  -0.085  -0.020  -0.231
    1UNL    C10   12  -0.051   0.104  -0.261
    1UNL    C11   13   0.017   0.149  -0.369
    1UNL    C12   14   0.038   0.286  -0.374
    1UNL    C13   15   0.013   0.368  -0.266
    1UNL    C14   16  -0.035   0.317  -0.153
    1UNL    C15   17  -0.083   0.186  -0.148
    1UNL    C16   18  -0.170  -0.173  -0.039
    1UNL    C17   19  -0.053  -0.265  -0.050
    1UNL    C18   20  -0.071  -0.406  -0.055
    1UNL     O1   21  -0.208  -0.457  -0.070
    1UNL    C19   22  -0.234  -0.576  -0.129
    1UNL    C20   23   0.039  -0.496  -0.062
    1UNL    C21   24   0.167  -0.447  -0.046
    1UNL    C22   25   0.192  -0.309  -0.028
    1UNL    C23   26   0.313  -0.226  -0.021
    1UNL    C24   27   0.273  -0.096  -0.015
    1UNL     N3   28   0.135  -0.096  -0.021
    1UNL    C25   29   0.084  -0.220  -0.032
    1UNL    C26   30   0.352   0.036  -0.000
    1UNL    C27   31   0.283   0.115   0.113
    1UNL     O2   32   0.302   0.085   0.230
    1UNL     O3   33   0.206   0.220   0.075
    1UNL    C28   34   0.156   0.294   0.185
    1UNL    C29   35   0.318   0.113  -0.132
    1UNL    C30   36   0.452   0.132  -0.212
    1UNL    C31   37   0.547   0.220  -0.118
    1UNL    C32   38   0.579   0.147   0.013
    1UNL    C33   39   0.558   0.246   0.133
    1UNL    C34   40   0.663   0.354   0.129
    1UNL    C35   41   0.501   0.012   0.018
    1UNL     N4   42   0.547  -0.067  -0.104
    1UNL    C36   43   0.545  -0.218  -0.098
    1UNL    C37   44   0.447  -0.291  -0.012
    1UNL    C38   45   0.515  -0.006  -0.231
    1UNL    C39   46  -0.240  -0.183   0.097
    1UNL    C40   47  -0.375  -0.105   0.123
    1UNL    C41   48  -0.358   0.022   0.217
    1UNL    C42   49  -0.496   0.049   0.275
    1UNL     O4   50  -0.554   0.154   0.249
    1UNL     O5   51  -0.539  -0.046   0.361
    1UNL    C43   52  -0.662  -0.015   0.416
    1UNL     H1   53  -0.778  -0.202  -0.046
    1UNL     H2   54  -0.723  -0.039  -0.035
    1UNL     H3   55  -0.702  -0.139   0.100
    1UNL     H4   56  -0.547  -0.193  -0.154
    1UNL     H5   57  -0.528  -0.272   0.004
    1UNL     H6   58  -0.381  -0.071  -0.101
    1UNL     H7   59  -0.550   0.098  -0.103
    1UNL     H8   60  -0.562   0.095   0.078
    1UNL     H9   61  -0.473   0.346  -0.063
    1UNL    H10   62  -0.362   0.273  -0.180
    1UNL    H11   63  -0.295   0.360  -0.028
    1UNL    H12   64  -0.325   0.234   0.198
    1UNL    H13   65  -0.104   0.222   0.123
    1UNL    H14   66  -0.111   0.045   0.149
    1UNL    H15   67  -0.101  -0.098  -0.297
    1UNL    H16   68   0.059   0.083  -0.450
    1UNL    H17   69   0.080   0.338  -0.457
    1UNL    H18   70   0.052   0.473  -0.262
    1UNL    H19   71  -0.053   0.391  -0.073
    1UNL    H20   72  -0.240  -0.209  -0.111
    1UNL    H21   73  -0.342  -0.580  -0.176
    1UNL    H22   74  -0.160  -0.608  -0.213
    1UNL    H23   75  -0.231  -0.649  -0.050
    1UNL    H24   76   0.017  -0.599  -0.083
    1UNL    H25   77   0.246  -0.515  -0.046
    1UNL    H26   78   0.082  -0.009  -0.027
    1UNL    H27   79   0.245   0.321   0.243
    1UNL    H28   80   0.120   0.398   0.168
    1UNL    H29   81   0.082   0.244   0.250
    1UNL    H30   82   0.242   0.063  -0.194
    1UNL    H31   83   0.274   0.215  -0.117
    1UNL    H32   84   0.455   0.183  -0.302
    1UNL    H33   85   0.642   0.242  -0.172
    1UNL    H34   86   0.476   0.314  -0.098
    1UNL    H35   87   0.682   0.114   0.001
    1UNL    H36   88   0.568   0.185   0.223
    1UNL    H37   89   0.452   0.278   0.128
    1UNL    H38   90   0.762   0.338   0.185
    1UNL    H39   91   0.697   0.378   0.034
    1UNL    H40   92   0.629   0.447   0.172
    1UNL    H41   93   0.516  -0.049   0.108
    1UNL    H42   94   0.551  -0.255  -0.196
    1UNL    H43   95   0.647  -0.248  -0.066
    1UNL    H44   96   0.429  -0.398  -0.039
    1UNL    H45   97   0.484  -0.281   0.090
    1UNL    H46   98   0.612  -0.003  -0.288
    1UNL    H47   99   0.448  -0.068  -0.291
    1UNL    H48  100  -0.253  -0.291   0.119
    1UNL    H49  101  -0.177  -0.167   0.185
    1UNL    H50  102  -0.444  -0.174   0.180
    1UNL    H51  103  -0.294  -0.012   0.295
    1UNL    H52  104  -0.701  -0.115   0.448
    1UNL    H53  105  -0.659   0.056   0.500
    1UNL    H54  106  -0.720   0.027   0.337
   0.00000   0.00000   0.00000   0.00000   0.00000   0.00000   0.00000   0.00000   0.00000
Generated with MDTraj, t= 48.0
 106
    1UNL     C1    1  -0.691  -0.122   0.007
    1UNL     C2    2  -0.563  -0.161  -0.065
    1UNL     C3    3  -0.443  -0.068  -0.031
    1UNL     C4    4  -0.486   0.084  -0.048
    1UNL     N1    5  -0.368   0.169  -0.024
    1UNL     C5    6  -0.393   0.315  -0.016
    1UNL     C6    7  -0.308   0.137   0.115
    1UNL     C7    8  -0.158   0.124   0.103
    1UNL     C8    9  -0.120   0.082  -0.037
    1UNL     C9   10  -0.129  -0.043  -0.098
    1UNL     N2   11  -0.079  -0.042  -0.228
    1UNL    C10   12  -0.044   0.093  -0.249
    1UNL    C11   13   0.004   0.156  -0.369
    1UNL    C12   14   0.017   0.294  -0.366
    1UNL    C13   15   0.002   0.362  -0.245
    1UNL    C14   16  -0.042   0.303  -0.130
    1UNL    C15   17  -0.067   0.169  -0.136
    1UNL    C16   18  -0.166  -0.187  -0.049
    1UNL    C17   19  -0.050  -0.272  -0.040
    1UNL    C18   20  -0.062  -0.404  -0.070
    1UNL     O1   21  -0.192  -0.449  -0.106
    1UNL    C19   22  -0.211  -0.580  -0.143
    1UNL    C20   23   0.048  -0.498  -0.062
    1UNL    C21   24   0.174  -0.445  -0.031
    1UNL    C22   25   0.192  -0.307  -0.011
    1UNL    C23   26   0.309  -0.224   0.008
    1UNL    C24   27   0.265  -0.096  -0.001
    1UNL     N3   28   0.130  -0.094  -0.009
    1UNL    C25   29   0.080  -0.216  -0.015
    1UNL    C26   30   0.340   0.036  -0.010
    1UNL    C27   31   0.289   0.119   0.105
    1UNL     O2   32   0.299   0.072   0.219
    1UNL     O3   33   0.224   0.236   0.089
    1UNL    C28   34   0.176   0.287   0.202
    1UNL    C29   35   0.319   0.098  -0.144
    1UNL    C30   36   0.449   0.119  -0.225
    1UNL    C31   37   0.540   0.212  -0.144
    1UNL    C32   38   0.566   0.148  -0.002
    1UNL    C33   39   0.525   0.249   0.116
    1UNL    C34   40   0.621   0.371   0.135
    1UNL    C35   41   0.492   0.012   0.009
    1UNL     N4   42   0.534  -0.080  -0.105
    1UNL    C36   43   0.536  -0.226  -0.085
    1UNL    C37   44   0.446  -0.271   0.028
    1UNL    C38   45   0.506  -0.022  -0.238
    1UNL    C39   46  -0.239  -0.185   0.086
    1UNL    C40   47  -0.377  -0.105   0.104
    1UNL    C41   48  -0.363   0.021   0.192
    1UNL    C42   49  -0.482   0.060   0.275
    1UNL     O4   50  -0.527   0.175   0.278
    1UNL     O5   51  -0.530  -0.045   0.349
    1UNL    C43   52  -0.649  -0.010   0.413
    1UNL     H1   53  -0.770  -0.191  -0.018
    1UNL     H2   54  -0.722  -0.023  -0.018
    1UNL     H3   55  -0.673  -0.125   0.117
    1UNL     H4   56  -0.585  -0.155  -0.170
    1UNL     H5   57  -0.534  -0.263  -0.030
    1UNL     H6   58  -0.375  -0.086  -0.123
    1UNL     H7   59  -0.524   0.106  -0.146
    1UNL     H8   60  -0.555   0.109   0.031
    1UNL     H9   61  -0.458   0.346   0.069
    1UNL    H10   62  -0.440   0.357  -0.109
    1UNL    H11   63  -0.292   0.358  -0.008
    1UNL    H12   64  -0.327   0.214   0.192
    1UNL    H13   65  -0.110   0.220   0.119
    1UNL    H14   66  -0.110   0.057   0.178
    1UNL    H15   67  -0.039  -0.130  -0.267
    1UNL    H16   68   0.012   0.122  -0.466
    1UNL    H17   69   0.043   0.355  -0.452
    1UNL    H18   70   0.008   0.466  -0.241
    1UNL    H19   71  -0.056   0.351  -0.037
    1UNL    H20   72  -0.227  -0.238  -0.121
    1UNL    H21   73  -0.324  -0.612  -0.135
    1UNL    H22   74  -0.176  -0.598  -0.252
    1UNL    H23   75  -0.154  -0.644  -0.074
    1UNL    H24   76   0.039  -0.602  -0.088
    1UNL    H25   77   0.267  -0.509  -0.023
    1UNL    H26   78   0.068  -0.012  -0.011
    1UNL    H27   79   0.254   0.351   0.246
    1UNL    H28   80   0.098   0.363   0.178
    1UNL    H29   81   0.129   0.213   0.274
    1UNL    H30   82   0.253   0.045  -0.210
    1UNL    H31   83   0.266   0.199  -0.133
    1UNL    H32   84   0.433   0.165  -0.317
    1UNL    H33   85   0.638   0.213  -0.201
    1UNL    H34   86   0.491   0.312  -0.130
    1UNL    H35   87   0.674   0.134   0.004
    1UNL    H36   88   0.530   0.196   0.212
    1UNL    H37   89   0.422   0.292   0.108
    1UNL    H38   90   0.718   0.359   0.079
    1UNL    H39   91   0.576   0.457   0.091
    1UNL    H40   92   0.640   0.383   0.241
    1UNL    H41   93   0.507  -0.029   0.110
    1UNL    H42   94   0.514  -0.275  -0.175
    1UNL    H43   95   0.643  -0.251  -0.073
    1UNL    H44   96   0.456  -0.380   0.029
    1UNL    H45   97   0.477  -0.229   0.127
    1UNL    H46   98   0.600  -0.021  -0.299
    1UNL    H47   99   0.438  -0.084  -0.295
    1UNL    H48  100  -0.253  -0.287   0.125
    1UNL    H49  101  -0.163  -0.159   0.161
    1UNL    H50  102  -0.455  -0.169   0.153
    1UNL    H51  103  -0.291  -0.008   0.266
    1UNL    H52  104  -0.649  -0.066   0.509
    1UNL    H53  105  -0.661   0.098   0.423
    1UNL    H54  106  -0.731  -0.039   0.353
   0.00000   0.00000   0.00000   0.00000   0.00000   0.00000   0.00000   0.00000   0.00000
Generated with MDTraj, t= 49.0
 106
    1UNL     C1    1  -0.676  -0.141   0.032
    1UNL     C2    2  -0.578  -0.119  -0.084
    1UNL     C3    3  -0.443  -0.046  -0.045
    1UNL     C4    4  -0.493   0.103  -0.026
    1UNL     N1    5  -0.366   0.188   0.003
    1UNL     C5    6  -0.400   0.333   0.013
    1UNL     C6    7  -0.300   0.141   0.123
    1UNL     C7    8  -0.149   0.117   0.094
    1UNL     C8    9  -0.128   0.072  -0.046
    1UNL     C9   10  -0.141  -0.049  -0.114
    1UNL     N2   11  -0.105  -0.029  -0.252
    1UNL    C10   12  -0.070   0.103  -0.266
    1UNL    C11   13  -0.025   0.170  -0.379
    1UNL    C12   14   0.034   0.294  -0.368
    1UNL    C13   15   0.027   0.367  -0.246
    1UNL    C14   16  -0.022   0.307  -0.130
    1UNL    C15   17  -0.071   0.169  -0.136
    1UNL    C16   18  -0.171  -0.187  -0.062
    1UNL    C17   19  -0.047  -0.276  -0.056
    1UNL    C18   20  -0.058  -0.420  -0.069
    1UNL     O1   21  -0.191  -0.472  -0.103
    1UNL    C19   22  -0.181  -0.603  -0.147
    1UNL    C20   23   0.050  -0.502  -0.038
    1UNL    C21   24   0.178  -0.456  -0.015
    1UNL    C22   25   0.196  -0.315  -0.015
    1UNL    C23   26   0.314  -0.225   0.011
    1UNL    C24   27   0.263  -0.098   0.013
    1UNL     N3   28   0.127  -0.109   0.000
    1UNL    C25   29   0.082  -0.231  -0.023
    1UNL    C26   30   0.338   0.030   0.001
    1UNL    C27   31   0.285   0.109   0.120
    1UNL     O2   32   0.311   0.079   0.238
    1UNL     O3   33   0.204   0.217   0.095
    1UNL    C28   34   0.178   0.295   0.209
    1UNL    C29   35   0.301   0.101  -0.135
    1UNL    C30   36   0.434   0.116  -0.220
    1UNL    C31   37   0.532   0.213  -0.144
    1UNL    C32   38   0.569   0.151  -0.003
    1UNL    C33   39   0.547   0.267   0.097
    1UNL    C34   40   0.653   0.384   0.091
    1UNL    C35   41   0.490   0.020   0.017
    1UNL     N4   42   0.534  -0.078  -0.100
    1UNL    C36   43   0.549  -0.220  -0.071
    1UNL    C37   44   0.450  -0.270   0.041
    1UNL    C38   45   0.499  -0.027  -0.234
    1UNL    C39   46  -0.245  -0.187   0.070
    1UNL    C40   47  -0.381  -0.104   0.086
    1UNL    C41   48  -0.356   0.011   0.191
    1UNL    C42   49  -0.488   0.047   0.265
    1UNL     O4   50  -0.524   0.164   0.264
    1UNL     O5   51  -0.557  -0.056   0.322
    1UNL    C43   52  -0.640  -0.002   0.422
    1UNL     H1   53  -0.767  -0.187  -0.001
    1UNL     H2   54  -0.707  -0.053   0.082
    1UNL     H3   55  -0.643  -0.212   0.117
    1UNL     H4   56  -0.629  -0.056  -0.156
    1UNL     H5   57  -0.546  -0.217  -0.125
    1UNL     H6   58  -0.372  -0.043  -0.138
    1UNL     H7   59  -0.528   0.144  -0.120
    1UNL     H8   60  -0.562   0.119   0.055
    1UNL     H9   61  -0.486   0.350   0.084
    1UNL    H10   62  -0.427   0.378  -0.078
    1UNL    H11   63  -0.305   0.383   0.052
    1UNL    H12   64  -0.305   0.223   0.195
    1UNL    H13   65  -0.104   0.213   0.116
    1UNL    H14   66  -0.099   0.043   0.157
    1UNL    H15   67  -0.130  -0.093  -0.328
    1UNL    H16   68  -0.026   0.103  -0.469
    1UNL    H17   69   0.081   0.346  -0.449
    1UNL    H18   70   0.054   0.476  -0.237
    1UNL    H19   71  -0.018   0.357  -0.032
    1UNL    H20   72  -0.234  -0.230  -0.139
    1UNL    H21   73  -0.266  -0.610  -0.225
    1UNL    H22   74  -0.083  -0.621  -0.204
    1UNL    H23   75  -0.195  -0.675  -0.059
    1UNL    H24   76   0.036  -0.610  -0.026
    1UNL    H25   77   0.259  -0.524  -0.016
    1UNL    H26   78   0.076  -0.021  -0.013
    1UNL    H27   79   0.267   0.300   0.271
    1UNL    H28   80   0.139   0.398   0.195
    1UNL    H29   81   0.097   0.243   0.268
    1UNL    H30   82   0.234   0.043  -0.194
    1UNL    H31   83   0.238   0.199  -0.121
    1UNL    H32   84   0.409   0.155  -0.311
    1UNL    H33   85   0.625   0.224  -0.210
    1UNL    H34   86   0.483   0.304  -0.121
    1UNL    H35   87   0.675   0.129   0.003
    1UNL    H36   88   0.533   0.224   0.196
    1UNL    H37   89   0.446   0.318   0.086
    1UNL    H38   90   0.733   0.391   0.165
    1UNL    H39   91   0.704   0.389  -0.007
    1UNL    H40   92   0.593   0.473   0.110
    1UNL    H41   93   0.517  -0.022   0.115
    1UNL    H42   94   0.525  -0.259  -0.165
    1UNL    H43   95   0.656  -0.249  -0.060
    1UNL    H44   96   0.444  -0.377   0.057
    1UNL    H45   97   0.497  -0.225   0.135
    1UNL    H46   98   0.595  -0.021  -0.291
    1UNL    H47   99   0.438  -0.092  -0.296
    1UNL    H48  100  -0.266  -0.291   0.095
    1UNL    H49  101  -0.175  -0.164   0.150
    1UNL    H50  102  -0.456  -0.169   0.136
    1UNL    H51  103  -0.290  -0.026   0.268
    1UNL    H52  104  -0.627  -0.066   0.510
    1UNL    H53  105  -0.615   0.101   0.445
    1UNL    H54  106  -0.743   0.011   0.395
   0.00000   0.00000   0.00000   0.00000   0.00000   0.00000   0.00000   0.00000   0.00000
Generated with MDTraj, t= 50.0
 106
    1UNL     C1    1  -0.676  -0.135   0.005
    1UNL     C2    2  -0.566  -0.121  -0.092
    1UNL     C3    3  -0.443  -0.049  -0.031
    1UNL     C4    4  -0.465   0.102  -0.029
    1UNL     N1    5  -0.345   0.188   0.026
    1UNL     C5    6  -0.384   0.330   0.046
    1UNL     C6    7  -0.271   0.119   0.141
    1UNL     C7    8  -0.122   0.077   0.086
    1UNL     C8    9  -0.123   0.067  -0.057
    1UNL     C9   10  -0.151  -0.047  -0.127
    1UNL     N2   11  -0.123  -0.023  -0.264
    1UNL    C10   12  -0.059   0.095  -0.276
    1UNL    C11   13  -0.017   0.165  -0.391
    1UNL    C12   14   0.032   0.290  -0.376
    1UNL    C13   15   0.033   0.360  -0.247
    1UNL    C14   16  -0.028   0.292  -0.144
    1UNL    C15   17  -0.071   0.163  -0.156
    1UNL    C16   18  -0.184  -0.186  -0.071
    1UNL    C17   19  -0.057  -0.268  -0.063
    1UNL    C18   20  -0.069  -0.408  -0.062
    1UNL     O1   21  -0.194  -0.458  -0.081
    1UNL    C19   22  -0.198  -0.583  -0.150
    1UNL    C20   23   0.045  -0.491  -0.030
    1UNL    C21   24   0.168  -0.434   0.007
    1UNL    C22   25   0.183  -0.296   0.000
    1UNL    C23   26   0.302  -0.215   0.022
    1UNL    C24   27   0.256  -0.087   0.009
    1UNL     N3   28   0.122  -0.086  -0.026
    1UNL    C25   29   0.073  -0.216  -0.036
    1UNL    C26   30   0.335   0.040   0.011
    1UNL    C27   31   0.290   0.132   0.130
    1UNL     O2   32   0.335   0.110   0.240
    1UNL     O3   33   0.197   0.228   0.111
    1UNL    C28   34   0.150   0.287   0.226
    1UNL    C29   35   0.305   0.122  -0.125
    1UNL    C30   36   0.426   0.109  -0.219
    1UNL    C31   37   0.544   0.200  -0.162
    1UNL    C32   38   0.578   0.149  -0.014
    1UNL    C33   39   0.559   0.265   0.090
    1UNL    C34   40   0.663   0.376   0.078
    1UNL    C35   41   0.486   0.021   0.012
    1UNL     N4   42   0.521  -0.081  -0.098
    1UNL    C36   43   0.545  -0.219  -0.054
    1UNL    C37   44   0.442  -0.264   0.051
    1UNL    C38   45   0.471  -0.041  -0.228
    1UNL    C39   46  -0.263  -0.210   0.057
    1UNL    C40   47  -0.378  -0.109   0.094
    1UNL    C41   48  -0.343  -0.002   0.201
    1UNL    C42   49  -0.472   0.040   0.278
    1UNL     O4   50  -0.526   0.147   0.260
    1UNL     O5   51  -0.534  -0.059   0.351
    1UNL    C43   52  -0.670  -0.026   0.376
    1UNL     H1   53  -0.763  -0.172  -0.046
    1UNL     H2   54  -0.697  -0.041   0.054
    1UNL     H3   55  -0.657  -0.210   0.088
    1UNL     H4   56  -0.596  -0.060  -0.178
    1UNL     H5   57  -0.538  -0.225  -0.122
    1UNL     H6   58  -0.359  -0.054  -0.113
    1UNL     H7   59  -0.493   0.142  -0.126
    1UNL     H8   60  -0.541   0.122   0.045
    1UNL     H9   61  -0.444   0.347   0.141
    1UNL    H10   62  -0.443   0.369  -0.029
    1UNL    H11   63  -0.283   0.387   0.040
    1UNL    H12   64  -0.254   0.190   0.220
    1UNL    H13   65  -0.045   0.142   0.124
    1UNL    H14   66  -0.104  -0.016   0.135
    1UNL    H15   67  -0.107  -0.085  -0.344
    1UNL    H16   68  -0.012   0.121  -0.488
    1UNL    H17   69   0.057   0.344  -0.469
    1UNL    H18   70   0.090   0.445  -0.226
    1UNL    H19   71  -0.044   0.331  -0.045
    1UNL    H20   72  -0.230  -0.236  -0.157
    1UNL    H21   73  -0.302  -0.582  -0.189
    1UNL    H22   74  -0.126  -0.573  -0.233
    1UNL    H23   75  -0.171  -0.673  -0.078
    1UNL    H24   76   0.042  -0.598  -0.034
    1UNL    H25   77   0.266  -0.486   0.000
    1UNL    H26   78   0.078  -0.007  -0.068
    1UNL    H27   79   0.221   0.353   0.273
    1UNL    H28   80   0.057   0.338   0.209
    1UNL    H29   81   0.123   0.202   0.295
    1UNL    H30   82   0.214   0.093  -0.176
    1UNL    H31   83   0.284   0.234  -0.108
    1UNL    H32   84   0.399   0.145  -0.311
    1UNL    H33   85   0.636   0.182  -0.228
    1UNL    H34   86   0.512   0.296  -0.166
    1UNL    H35   87   0.685   0.125  -0.012
    1UNL    H36   88   0.571   0.225   0.191
    1UNL    H37   89   0.448   0.291   0.098
    1UNL    H38   90   0.754   0.362   0.023
    1UNL    H39   91   0.624   0.471   0.031
    1UNL    H40   92   0.691   0.399   0.180
    1UNL    H41   93   0.516  -0.015   0.111
    1UNL    H42   94   0.538  -0.283  -0.135
    1UNL    H43   95   0.651  -0.217  -0.024
    1UNL    H44   96   0.456  -0.371   0.061
    1UNL    H45   97   0.461  -0.220   0.156
    1UNL    H46   98   0.544  -0.060  -0.310
    1UNL    H47   99   0.390  -0.110  -0.250
    1UNL    H48  100  -0.298  -0.313   0.059
    1UNL    H49  101  -0.193  -0.207   0.138
    1UNL    H50  102  -0.451  -0.172   0.151
    1UNL    H51  103  -0.278  -0.047   0.276
    1UNL    H52  104  -0.729  -0.112   0.340
    1UNL    H53  105  -0.694  -0.017   0.482
    1UNL    H54  106  -0.701   0.069   0.335
   0.00000   0.00000   0.00000   0.00000   0.00000   0.00000   0.00000   0.00000   0.00000
Generated with MDTraj, t= 51.0
 106
    1UNL     C1    1  -0.694  -0.092  -0.024
    1UNL     C2    2  -0.558  -0.118  -0.101
    1UNL     C3    3  -0.430  -0.035  -0.051
    1UNL     C4    4  -0.458   0.114  -0.028
    1UNL     N1    5  -0.351   0.196   0.033
    1UNL     C5    6  -0.374   0.339   0.061
    1UNL     C6    7  -0.277   0.123   0.145
    1UNL     C7    8  -0.134   0.099   0.094
    1UNL     C8    9  -0.130   0.068  -0.057
    1UNL     C9   10  -0.143  -0.054  -0.120
    1UNL     N2   11  -0.106  -0.037  -0.252
    1UNL    C10   12  -0.071   0.090  -0.275
    1UNL    C11   13  -0.026   0.163  -0.390
    1UNL    C12   14   0.027   0.294  -0.382
    1UNL    C13   15   0.031   0.353  -0.252
    1UNL    C14   16  -0.026   0.295  -0.135
    1UNL    C15   17  -0.070   0.157  -0.150
    1UNL    C16   18  -0.178  -0.190  -0.070
    1UNL    C17   19  -0.046  -0.276  -0.062
    1UNL    C18   20  -0.057  -0.411  -0.069
    1UNL     O1   21  -0.189  -0.471  -0.061
    1UNL    C19   22  -0.209  -0.575  -0.159
    1UNL    C20   23   0.054  -0.488  -0.023
    1UNL    C21   24   0.166  -0.432   0.024
    1UNL    C22   25   0.182  -0.291   0.017
    1UNL    C23   26   0.292  -0.206   0.040
    1UNL    C24   27   0.253  -0.080   0.004
    1UNL     N3   28   0.119  -0.089  -0.045
    1UNL    C25   29   0.073  -0.217  -0.029
    1UNL    C26   30   0.331   0.053   0.005
    1UNL    C27   31   0.287   0.130   0.127
    1UNL     O2   32   0.355   0.126   0.227
    1UNL     O3   33   0.172   0.200   0.124
    1UNL    C28   34   0.156   0.286   0.236
    1UNL    C29   35   0.310   0.123  -0.130
    1UNL    C30   36   0.430   0.106  -0.224
    1UNL    C31   37   0.552   0.187  -0.162
    1UNL    C32   38   0.572   0.149  -0.015
    1UNL    C33   39   0.556   0.269   0.083
    1UNL    C34   40   0.669   0.379   0.062
    1UNL    C35   41   0.487   0.024   0.012
    1UNL     N4   42   0.522  -0.082  -0.096
    1UNL    C36   43   0.518  -0.222  -0.056
    1UNL    C37   44   0.428  -0.257   0.059
    1UNL    C38   45   0.482  -0.039  -0.230
    1UNL    C39   46  -0.256  -0.200   0.065
    1UNL    C40   47  -0.378  -0.110   0.086
    1UNL    C41   48  -0.348  -0.004   0.195
    1UNL    C42   49  -0.478   0.019   0.261
    1UNL     O4   50  -0.518   0.130   0.281
    1UNL     O5   51  -0.543  -0.091   0.312
    1UNL    C43   52  -0.641  -0.042   0.397
    1UNL     H1   53  -0.769  -0.151  -0.075
    1UNL     H2   54  -0.723   0.015  -0.033
    1UNL     H3   55  -0.692  -0.116   0.078
    1UNL     H4   56  -0.585  -0.103  -0.205
    1UNL     H5   57  -0.529  -0.226  -0.098
    1UNL     H6   58  -0.350  -0.046  -0.131
    1UNL     H7   59  -0.473   0.156  -0.126
    1UNL     H8   60  -0.548   0.129   0.033
    1UNL     H9   61  -0.444   0.348   0.147
    1UNL    H10   62  -0.427   0.389  -0.019
    1UNL    H11   63  -0.274   0.392   0.071
    1UNL    H12   64  -0.277   0.196   0.226
    1UNL    H13   65  -0.078   0.186   0.129
    1UNL    H14   66  -0.089   0.014   0.139
    1UNL    H15   67  -0.114  -0.109  -0.325
    1UNL    H16   68  -0.042   0.109  -0.483
    1UNL    H17   69   0.086   0.338  -0.457
    1UNL    H18   70   0.066   0.458  -0.241
    1UNL    H19   71  -0.030   0.344  -0.040
    1UNL    H20   72  -0.244  -0.238  -0.145
    1UNL    H21   73  -0.266  -0.649  -0.107
    1UNL    H22   74  -0.276  -0.529  -0.231
    1UNL    H23   75  -0.111  -0.617  -0.206
    1UNL    H24   76   0.044  -0.594  -0.015
    1UNL    H25   77   0.246  -0.495   0.057
    1UNL    H26   78   0.065  -0.016  -0.093
    1UNL    H27   79   0.243   0.341   0.267
    1UNL    H28   80   0.071   0.348   0.218
    1UNL    H29   81   0.127   0.212   0.313
    1UNL    H30   82   0.214   0.094  -0.180
    1UNL    H31   83   0.301   0.234  -0.116
    1UNL    H32   84   0.417   0.137  -0.320
    1UNL    H33   85   0.641   0.165  -0.230
    1UNL    H34   86   0.532   0.289  -0.166
    1UNL    H35   87   0.677   0.120  -0.004
    1UNL    H36   88   0.552   0.232   0.185
    1UNL    H37   89   0.458   0.327   0.071
    1UNL    H38   90   0.719   0.367  -0.030
    1UNL    H39   91   0.620   0.482   0.050
    1UNL    H40   92   0.732   0.372   0.150
    1UNL    H41   93   0.522  -0.021   0.106
    1UNL    H42   94   0.491  -0.269  -0.145
    1UNL    H43   95   0.620  -0.252  -0.027
    1UNL    H44   96   0.411  -0.361   0.084
    1UNL    H45   97   0.476  -0.210   0.152
    1UNL    H46   98   0.570  -0.050  -0.297
    1UNL    H47   99   0.411  -0.113  -0.270
    1UNL    H48  100  -0.275  -0.304   0.087
    1UNL    H49  101  -0.178  -0.181   0.136
    1UNL    H50  102  -0.459  -0.177   0.123
    1UNL    H51  103  -0.281  -0.046   0.272
    1UNL    H52  104  -0.690   0.040   0.342
    1UNL    H53  105  -0.722  -0.116   0.410
    1UNL    H54  106  -0.602  -0.012   0.495
   0.00000   0.00000   0.00000   0.00000   0.00000   0.00000   0.00000   0.00000   0.00000
Generated with MDTraj, t= 52.0
 106
    1UNL     C1    1  -0.699  -0.083  -0.050
    1UNL     C2    2  -0.569  -0.095  -0.122
    1UNL     C3    3  -0.454  -0.019  -0.062
    1UNL     C4    4  -0.485   0.125  -0.032
    1UNL     N1    5  -0.366   0.200   0.017
    1UNL     C5    6  -0.393   0.341   0.057
    1UNL     C6    7  -0.291   0.128   0.136
    1UNL     C7    8  -0.145   0.101   0.096
    1UNL     C8    9  -0.125   0.070  -0.053
    1UNL     C9   10  -0.140  -0.052  -0.119
    1UNL     N2   11  -0.103  -0.033  -0.250
    1UNL    C10   12  -0.073   0.105  -0.273
    1UNL    C11   13  -0.022   0.174  -0.384
    1UNL    C12   14   0.023   0.301  -0.367
    1UNL    C13   15   0.012   0.367  -0.238
    1UNL    C14   16  -0.036   0.294  -0.128
    1UNL    C15   17  -0.078   0.167  -0.148
    1UNL    C16   18  -0.172  -0.193  -0.061
    1UNL    C17   19  -0.049  -0.271  -0.029
    1UNL    C18   20  -0.066  -0.410  -0.031
    1UNL     O1   21  -0.183  -0.464  -0.067
    1UNL    C19   22  -0.162  -0.575  -0.163
    1UNL    C20   23   0.051  -0.496  -0.004
    1UNL    C21   24   0.171  -0.444   0.025
    1UNL    C22   25   0.189  -0.307   0.008
    1UNL    C23   26   0.309  -0.226   0.018
    1UNL    C24   27   0.271  -0.092   0.010
    1UNL     N3   28   0.130  -0.091  -0.003
    1UNL    C25   29   0.081  -0.225  -0.013
    1UNL    C26   30   0.339   0.036   0.006
    1UNL    C27   31   0.298   0.123   0.120
    1UNL     O2   32   0.359   0.127   0.222
    1UNL     O3   33   0.188   0.192   0.094
    1UNL    C28   34   0.133   0.265   0.215
    1UNL    C29   35   0.301   0.097  -0.131
    1UNL    C30   36   0.419   0.091  -0.230
    1UNL    C31   37   0.533   0.190  -0.178
    1UNL    C32   38   0.569   0.152  -0.031
    1UNL    C33   39   0.565   0.265   0.080
    1UNL    C34   40   0.655   0.386   0.065
    1UNL    C35   41   0.498   0.022   0.015
    1UNL     N4   42   0.542  -0.078  -0.092
    1UNL    C36   43   0.555  -0.220  -0.052
    1UNL    C37   44   0.447  -0.260   0.051
    1UNL    C38   45   0.480  -0.054  -0.226
    1UNL    C39   46  -0.271  -0.197   0.058
    1UNL    C40   47  -0.394  -0.097   0.069
    1UNL    C41   48  -0.360   0.003   0.182
    1UNL    C42   49  -0.476   0.027   0.274
    1UNL     O4   50  -0.493   0.134   0.324
    1UNL     O5   51  -0.552  -0.086   0.298
    1UNL    C43   52  -0.635  -0.058   0.401
    1UNL     H1   53  -0.770  -0.150  -0.100
    1UNL     H2   54  -0.749   0.015  -0.069
    1UNL     H3   55  -0.707  -0.098   0.051
    1UNL     H4   56  -0.581  -0.058  -0.224
    1UNL     H5   57  -0.545  -0.202  -0.147
    1UNL     H6   58  -0.370  -0.019  -0.132
    1UNL     H7   59  -0.516   0.172  -0.123
    1UNL     H8   60  -0.567   0.124   0.042
    1UNL     H9   61  -0.480   0.343   0.124
    1UNL    H10   62  -0.429   0.409  -0.031
    1UNL    H11   63  -0.303   0.393   0.092
    1UNL    H12   64  -0.298   0.195   0.221
    1UNL    H13   65  -0.076   0.181   0.113
    1UNL    H14   66  -0.108   0.028   0.162
    1UNL    H15   67  -0.102  -0.109  -0.319
    1UNL    H16   68  -0.014   0.124  -0.482
    1UNL    H17   69   0.066   0.356  -0.454
    1UNL    H18   70   0.054   0.463  -0.221
    1UNL    H19   71  -0.057   0.345  -0.032
    1UNL    H20   72  -0.226  -0.240  -0.146
    1UNL    H21   73  -0.097  -0.647  -0.121
    1UNL    H22   74  -0.259  -0.626  -0.177
    1UNL    H23   75  -0.116  -0.540  -0.256
    1UNL    H24   76   0.036  -0.603  -0.006
    1UNL    H25   77   0.256  -0.508   0.044
    1UNL    H26   78   0.074  -0.005   0.001
    1UNL    H27   79   0.208   0.327   0.259
    1UNL    H28   80   0.039   0.316   0.199
    1UNL    H29   81   0.111   0.184   0.288
    1UNL    H30   82   0.207   0.052  -0.180
    1UNL    H31   83   0.276   0.204  -0.128
    1UNL    H32   84   0.383   0.119  -0.323
    1UNL    H33   85   0.622   0.188  -0.243
    1UNL    H34   86   0.492   0.294  -0.192
    1UNL    H35   87   0.674   0.123  -0.043
    1UNL    H36   88   0.573   0.224   0.180
    1UNL    H37   89   0.456   0.298   0.081
    1UNL    H38   90   0.609   0.468   0.015
    1UNL    H39   91   0.681   0.435   0.167
    1UNL    H40   92   0.750   0.358   0.021
    1UNL    H41   93   0.530  -0.011   0.115
    1UNL    H42   94   0.553  -0.286  -0.135
    1UNL    H43   95   0.656  -0.226  -0.008
    1UNL    H44   96   0.463  -0.368   0.063
    1UNL    H45   97   0.457  -0.215   0.154
    1UNL    H46   98   0.562  -0.081  -0.293
    1UNL    H47   99   0.402  -0.129  -0.242
    1UNL    H48  100  -0.301  -0.299   0.071
    1UNL    H49  101  -0.216  -0.179   0.149
    1UNL    H50  102  -0.477  -0.153   0.114
    1UNL    H51  103  -0.279  -0.042   0.245
    1UNL    H52  104  -0.628   0.051   0.419
    1UNL    H53  105  -0.737  -0.083   0.367
    1UNL    H54  106  -0.614  -0.116   0.492
   0.00000   0.00000   0.00000   0.00000   0.00000   0.00000   0.00000   0.00000   0.00000
Generated with MDTraj, t= 53.0
 106
    1UNL     C1    1  -0.677  -0.111  -0.055
    1UNL     C2    2  -0.550  -0.090  -0.145
    1UNL     C3    3  -0.444  -0.022  -0.061
    1UNL     C4    4  -0.490   0.116  -0.023
    1UNL     N1    5  -0.366   0.194   0.019
    1UNL     C5    6  -0.400   0.329   0.044
    1UNL     C6    7  -0.291   0.127   0.134
    1UNL     C7    8  -0.140   0.102   0.113
    1UNL     C8    9  -0.108   0.076  -0.036
    1UNL     C9   10  -0.125  -0.044  -0.099
    1UNL     N2   11  -0.094  -0.024  -0.231
    1UNL    C10   12  -0.054   0.107  -0.254
    1UNL    C11   13   0.002   0.162  -0.367
    1UNL    C12   14   0.011   0.302  -0.359
    1UNL    C13   15  -0.017   0.382  -0.247
    1UNL    C14   16  -0.057   0.318  -0.135
    1UNL    C15   17  -0.078   0.176  -0.136
    1UNL    C16   18  -0.166  -0.177  -0.049
    1UNL    C17   19  -0.044  -0.276  -0.018
    1UNL    C18   20  -0.062  -0.412  -0.034
    1UNL     O1   21  -0.189  -0.459  -0.073
    1UNL    C19   22  -0.175  -0.566  -0.157
    1UNL    C20   23   0.051  -0.496  -0.013
    1UNL    C21   24   0.175  -0.450   0.020
    1UNL    C22   25   0.194  -0.310   0.027
    1UNL    C23   26   0.305  -0.225   0.033
    1UNL    C24   27   0.266  -0.097   0.009
    1UNL     N3   28   0.129  -0.100   0.004
    1UNL    C25   29   0.082  -0.235   0.011
    1UNL    C26   30   0.338   0.034   0.004
    1UNL    C27   31   0.292   0.125   0.116
    1UNL     O2   32   0.344   0.110   0.221
    1UNL     O3   33   0.195   0.210   0.092
    1UNL    C28   34   0.148   0.279   0.209
    1UNL    C29   35   0.310   0.093  -0.142
    1UNL    C30   36   0.436   0.102  -0.231
    1UNL    C31   37   0.546   0.190  -0.169
    1UNL    C32   38   0.580   0.146  -0.025
    1UNL    C33   39   0.560   0.265   0.071
    1UNL    C34   40   0.644   0.385   0.034
    1UNL    C35   41   0.495   0.016   0.009
    1UNL     N4   42   0.531  -0.088  -0.098
    1UNL    C36   43   0.520  -0.229  -0.080
    1UNL    C37   44   0.451  -0.252   0.049
    1UNL    C38   45   0.501  -0.042  -0.233
    1UNL    C39   46  -0.289  -0.209   0.041
    1UNL    C40   47  -0.398  -0.102   0.071
    1UNL    C41   48  -0.359  -0.008   0.186
    1UNL    C42   49  -0.473   0.018   0.286
    1UNL     O4   50  -0.478   0.124   0.344
    1UNL     O5   51  -0.575  -0.076   0.291
    1UNL    C43   52  -0.668  -0.031   0.379
    1UNL     H1   53  -0.756  -0.153  -0.118
    1UNL     H2   54  -0.711  -0.012  -0.022
    1UNL     H3   55  -0.660  -0.169   0.031
    1UNL     H4   56  -0.570  -0.036  -0.239
    1UNL     H5   57  -0.518  -0.187  -0.194
    1UNL     H6   58  -0.352  -0.006  -0.111
    1UNL     H7   59  -0.550   0.159  -0.101
    1UNL     H8   60  -0.550   0.110   0.070
    1UNL     H9   61  -0.468   0.333   0.132
    1UNL    H10   62  -0.459   0.386  -0.041
    1UNL    H11   63  -0.307   0.381   0.053
    1UNL    H12   64  -0.310   0.201   0.214
    1UNL    H13   65  -0.087   0.188   0.144
    1UNL    H14   66  -0.093   0.022   0.163
    1UNL    H15   67  -0.087  -0.106  -0.290
    1UNL    H16   68   0.030   0.097  -0.444
    1UNL    H17   69   0.034   0.341  -0.454
    1UNL    H18   70   0.002   0.490  -0.252
    1UNL    H19   71  -0.072   0.378  -0.052
    1UNL    H20   72  -0.211  -0.216  -0.149
    1UNL    H21   73  -0.155  -0.656  -0.100
    1UNL    H22   74  -0.274  -0.584  -0.201
    1UNL    H23   75  -0.103  -0.550  -0.230
    1UNL    H24   76   0.046  -0.603  -0.025
    1UNL    H25   77   0.256  -0.521   0.044
    1UNL    H26   78   0.090  -0.013  -0.033
    1UNL    H27   79   0.235   0.314   0.261
    1UNL    H28   80   0.082   0.360   0.176
    1UNL    H29   81   0.090   0.208   0.275
    1UNL    H30   82   0.227   0.037  -0.202
    1UNL    H31   83   0.268   0.193  -0.140
    1UNL    H32   84   0.415   0.139  -0.327
    1UNL    H33   85   0.622   0.182  -0.245
    1UNL    H34   86   0.514   0.305  -0.167
    1UNL    H35   87   0.685   0.117  -0.023
    1UNL    H36   88   0.576   0.235   0.174
    1UNL    H37   89   0.451   0.296   0.069
    1UNL    H38   90   0.654   0.413  -0.069
    1UNL    H39   91   0.616   0.483   0.082
    1UNL    H40   92   0.747   0.367   0.067
    1UNL    H41   93   0.522  -0.023   0.107
    1UNL    H42   94   0.466  -0.273  -0.160
    1UNL    H43   95   0.622  -0.271  -0.076
    1UNL    H44   96   0.462  -0.361   0.080
    1UNL    H45   97   0.501  -0.194   0.129
    1UNL    H46   98   0.592  -0.035  -0.291
    1UNL    H47   99   0.439  -0.124  -0.277
    1UNL    H48  100  -0.345  -0.286  -0.009
    1UNL    H49  101  -0.254  -0.247   0.137
    1UNL    H50  102  -0.489  -0.150   0.110
    1UNL    H51  103  -0.275  -0.063   0.238
    1UNL    H52  104  -0.653   0.079   0.387
    1UNL    H53  105  -0.768  -0.066   0.352
    1UNL    H54  106  -0.654  -0.078   0.477
   0.00000   0.00000   0.00000   0.00000   0.00000   0.00000   0.00000   0.00000   0.00000
Generated with MDTraj, t= 54.0
 106
    1UNL     C1    1  -0.658  -0.148  -0.069
    1UNL     C2    2  -0.519  -0.129  -0.126
    1UNL     C3    3  -0.427  -0.033  -0.048
    1UNL     C4    4  -0.488   0.104  -0.020
    1UNL     N1    5  -0.372   0.188   0.042
    1UNL     C5    6  -0.389   0.334   0.061
    1UNL     C6    7  -0.296   0.125   0.151
    1UNL     C7    8  -0.146   0.098   0.109
    1UNL     C8    9  -0.130   0.073  -0.041
    1UNL     C9   10  -0.135  -0.047  -0.114
    1UNL     N2   11  -0.081  -0.031  -0.234
    1UNL    C10   12  -0.054   0.108  -0.254
    1UNL    C11   13  -0.000   0.179  -0.362
    1UNL    C12   14   0.017   0.310  -0.347
    1UNL    C13   15  -0.020   0.374  -0.228
    1UNL    C14   16  -0.060   0.308  -0.114
    1UNL    C15   17  -0.080   0.169  -0.127
    1UNL    C16   18  -0.170  -0.182  -0.063
    1UNL    C17   19  -0.041  -0.273  -0.049
    1UNL    C18   20  -0.067  -0.409  -0.044
    1UNL     O1   21  -0.191  -0.463  -0.069
    1UNL    C19   22  -0.205  -0.582  -0.145
    1UNL    C20   23   0.044  -0.493  -0.003
    1UNL    C21   24   0.161  -0.438   0.034
    1UNL    C22   25   0.187  -0.303   0.010
    1UNL    C23   26   0.301  -0.221   0.021
    1UNL    C24   27   0.264  -0.088   0.010
    1UNL     N3   28   0.129  -0.090  -0.010
    1UNL    C25   29   0.082  -0.221  -0.009
    1UNL    C26   30   0.334   0.037  -0.001
    1UNL    C27   31   0.305   0.130   0.113
    1UNL     O2   32   0.353   0.113   0.222
    1UNL     O3   33   0.219   0.230   0.080
    1UNL    C28   34   0.192   0.318   0.189
    1UNL    C29   35   0.298   0.094  -0.148
    1UNL    C30   36   0.426   0.093  -0.239
    1UNL    C31   37   0.535   0.186  -0.177
    1UNL    C32   38   0.574   0.147  -0.037
    1UNL    C33   39   0.553   0.249   0.073
    1UNL    C34   40   0.653   0.368   0.079
    1UNL    C35   41   0.493   0.015  -0.004
    1UNL     N4   42   0.539  -0.083  -0.112
    1UNL    C36   43   0.543  -0.223  -0.071
    1UNL    C37   44   0.445  -0.265   0.042
    1UNL    C38   45   0.481  -0.050  -0.243
    1UNL    C39   46  -0.252  -0.192   0.072
    1UNL    C40   47  -0.378  -0.100   0.088
    1UNL    C41   48  -0.363  -0.003   0.206
    1UNL    C42   49  -0.490   0.034   0.280
    1UNL     O4   50  -0.491   0.118   0.369
    1UNL     O5   51  -0.595  -0.050   0.250
    1UNL    C43   52  -0.705  -0.027   0.336
    1UNL     H1   53  -0.710  -0.214  -0.137
    1UNL     H2   54  -0.709  -0.055  -0.066
    1UNL     H3   55  -0.657  -0.189   0.033
    1UNL     H4   56  -0.524  -0.114  -0.235
    1UNL     H5   57  -0.464  -0.228  -0.124
    1UNL     H6   58  -0.340  -0.016  -0.099
    1UNL     H7   59  -0.518   0.160  -0.107
    1UNL     H8   60  -0.576   0.101   0.049
    1UNL     H9   61  -0.479   0.358   0.126
    1UNL    H10   62  -0.399   0.393  -0.035
    1UNL    H11   63  -0.294   0.369   0.099
    1UNL    H12   64  -0.298   0.200   0.234
    1UNL    H13   65  -0.069   0.167   0.133
    1UNL    H14   66  -0.117   0.019   0.174
    1UNL    H15   67  -0.078  -0.098  -0.309
    1UNL    H16   68   0.016   0.121  -0.457
    1UNL    H17   69   0.066   0.370  -0.426
    1UNL    H18   70  -0.031   0.479  -0.242
    1UNL    H19   71  -0.066   0.362  -0.017
    1UNL    H20   72  -0.231  -0.233  -0.145
    1UNL    H21   73  -0.248  -0.661  -0.088
    1UNL    H22   74  -0.274  -0.568  -0.226
    1UNL    H23   75  -0.116  -0.610  -0.178
    1UNL    H24   76   0.027  -0.599   0.010
    1UNL    H25   77   0.229  -0.499   0.084
    1UNL    H26   78   0.067  -0.021  -0.050
    1UNL    H27   79   0.282   0.374   0.201
    1UNL    H28   80   0.108   0.382   0.155
    1UNL    H29   81   0.163   0.265   0.286
    1UNL    H30   82   0.210   0.045  -0.207
    1UNL    H31   83   0.265   0.197  -0.141
    1UNL    H32   84   0.392   0.125  -0.333
    1UNL    H33   85   0.619   0.201  -0.243
    1UNL    H34   86   0.477   0.289  -0.171
    1UNL    H35   87   0.680   0.121  -0.031
    1UNL    H36   88   0.553   0.207   0.173
    1UNL    H37   89   0.454   0.299   0.057
    1UNL    H38   90   0.651   0.428  -0.013
    1UNL    H39   91   0.617   0.436   0.157
    1UNL    H40   92   0.756   0.339   0.108
    1UNL    H41   93   0.546  -0.023   0.085
    1UNL    H42   94   0.520  -0.282  -0.156
    1UNL    H43   95   0.649  -0.242  -0.039
    1UNL    H44   96   0.468  -0.376   0.069
    1UNL    H45   97   0.485  -0.215   0.131
    1UNL    H46   98   0.563  -0.056  -0.312
    1UNL    H47   99   0.401  -0.123  -0.269
    1UNL    H48  100  -0.275  -0.297   0.082
    1UNL    H49  101  -0.174  -0.163   0.144
    1UNL    H50  102  -0.467  -0.160   0.115
    1UNL    H51  103  -0.290  -0.042   0.286
    1UNL    H52  104  -0.777   0.038   0.284
    1UNL    H53  105  -0.735  -0.123   0.376
    1UNL    H54  106  -0.677   0.029   0.426
   0.00000   0.00000   0.00000   0.00000   0.00000   0.00000   0.00000   0.00000   0.00000
Generated with MDTraj, t= 55.0
 106
    1UNL     C1    1  -0.666  -0.156  -0.046
    1UNL     C2    2  -0.532  -0.152  -0.114
    1UNL     C3    3  -0.428  -0.052  -0.049
    1UNL     C4    4  -0.485   0.090  -0.025
    1UNL     N1    5  -0.382   0.186   0.039
    1UNL     C5    6  -0.432   0.323   0.072
    1UNL     C6    7  -0.310   0.132   0.160
    1UNL     C7    8  -0.158   0.122   0.126
    1UNL     C8    9  -0.129   0.085  -0.018
    1UNL     C9   10  -0.132  -0.040  -0.086
    1UNL     N2   11  -0.102  -0.018  -0.216
    1UNL    C10   12  -0.067   0.114  -0.233
    1UNL    C11   13  -0.030   0.190  -0.346
    1UNL    C12   14   0.022   0.314  -0.337
    1UNL    C13   15   0.017   0.372  -0.212
    1UNL    C14   16  -0.041   0.318  -0.104
    1UNL    C15   17  -0.090   0.181  -0.111
    1UNL    C16   18  -0.163  -0.184  -0.050
    1UNL    C17   19  -0.046  -0.279  -0.049
    1UNL    C18   20  -0.060  -0.420  -0.042
    1UNL     O1   21  -0.190  -0.472  -0.055
    1UNL    C19   22  -0.197  -0.602  -0.101
    1UNL    C20   23   0.058  -0.499  -0.028
    1UNL    C21   24   0.179  -0.437  -0.001
    1UNL    C22   25   0.192  -0.301   0.009
    1UNL    C23   26   0.302  -0.219   0.019
    1UNL    C24   27   0.263  -0.091  -0.001
    1UNL     N3   28   0.127  -0.095  -0.027
    1UNL    C25   29   0.081  -0.227  -0.027
    1UNL    C26   30   0.337   0.041  -0.012
    1UNL    C27   31   0.290   0.131   0.105
    1UNL     O2   32   0.315   0.095   0.216
    1UNL     O3   33   0.227   0.241   0.067
    1UNL    C28   34   0.199   0.329   0.183
    1UNL    C29   35   0.317   0.101  -0.148
    1UNL    C30   36   0.438   0.099  -0.244
    1UNL    C31   37   0.551   0.191  -0.182
    1UNL    C32   38   0.578   0.152  -0.032
    1UNL    C33   39   0.569   0.265   0.073
    1UNL    C34   40   0.697   0.347   0.065
    1UNL    C35   41   0.493   0.018  -0.001
    1UNL     N4   42   0.533  -0.087  -0.107
    1UNL    C36   43   0.535  -0.230  -0.080
    1UNL    C37   44   0.445  -0.273   0.035
    1UNL    C38   45   0.495  -0.054  -0.249
    1UNL    C39   46  -0.237  -0.182   0.091
    1UNL    C40   47  -0.373  -0.106   0.091
    1UNL    C41   48  -0.368  -0.002   0.204
    1UNL    C42   49  -0.496   0.029   0.270
    1UNL     O4   50  -0.501   0.110   0.362
    1UNL     O5   51  -0.598  -0.038   0.214
    1UNL    C43   52  -0.721   0.005   0.275
    1UNL     H1   53  -0.737  -0.207  -0.106
    1UNL     H2   54  -0.705  -0.061  -0.030
    1UNL     H3   55  -0.667  -0.209   0.055
    1UNL     H4   56  -0.537  -0.114  -0.217
    1UNL     H5   57  -0.487  -0.253  -0.132
    1UNL     H6   58  -0.345  -0.041  -0.119
    1UNL     H7   59  -0.528   0.142  -0.110
    1UNL     H8   60  -0.572   0.097   0.044
    1UNL     H9   61  -0.495   0.328   0.169
    1UNL    H10   62  -0.495   0.359  -0.006
    1UNL    H11   63  -0.341   0.389   0.069
    1UNL    H12   64  -0.331   0.206   0.242
    1UNL    H13   65  -0.117   0.215   0.156
    1UNL    H14   66  -0.113   0.050   0.187
    1UNL    H15   67  -0.058  -0.086  -0.275
    1UNL    H16   68  -0.023   0.139  -0.437
    1UNL    H17   69   0.050   0.353  -0.433
    1UNL    H18   70   0.076   0.463  -0.213
    1UNL    H19   71  -0.048   0.379  -0.016
    1UNL    H20   72  -0.232  -0.235  -0.126
    1UNL    H21   73  -0.142  -0.670  -0.042
    1UNL    H22   74  -0.296  -0.639  -0.101
    1UNL    H23   75  -0.156  -0.600  -0.195
    1UNL    H24   76   0.053  -0.600  -0.066
    1UNL    H25   77   0.271  -0.502  -0.001
    1UNL    H26   78   0.085  -0.004  -0.033
    1UNL    H27   79   0.294   0.363   0.214
    1UNL    H28   80   0.130   0.414   0.164
    1UNL    H29   81   0.160   0.275   0.276
    1UNL    H30   82   0.230   0.053  -0.203
    1UNL    H31   83   0.292   0.207  -0.132
    1UNL    H32   84   0.414   0.135  -0.339
    1UNL    H33   85   0.640   0.179  -0.247
    1UNL    H34   86   0.523   0.298  -0.189
    1UNL    H35   87   0.684   0.129  -0.013
    1UNL    H36   88   0.556   0.226   0.175
    1UNL    H37   89   0.480   0.328   0.059
    1UNL    H38   90   0.712   0.411  -0.025
    1UNL    H39   91   0.703   0.413   0.146
    1UNL    H40   92   0.789   0.285   0.078
    1UNL    H41   93   0.514  -0.015   0.101
    1UNL    H42   94   0.512  -0.287  -0.168
    1UNL    H43   95   0.642  -0.247  -0.052
    1UNL    H44   96   0.456  -0.390   0.038
    1UNL    H45   97   0.500  -0.246   0.127
    1UNL    H46   98   0.574  -0.073  -0.318
    1UNL    H47   99   0.409  -0.122  -0.272
    1UNL    H48  100  -0.241  -0.284   0.127
    1UNL    H49  101  -0.166  -0.124   0.148
    1UNL    H50  102  -0.444  -0.184   0.126
    1UNL    H51  103  -0.308  -0.048   0.294
    1UNL    H52  104  -0.798   0.010   0.196
    1UNL    H53  105  -0.735  -0.063   0.357
    1UNL    H54  106  -0.718   0.106   0.315
   0.00000   0.00000   0.00000   0.00000   0.00000   0.00000   0.00000   0.00000   0.00000
Generated with MDTraj, t= 56.0
 106
    1UNL     C1    1  -0.681  -0.169  -0.029
    1UNL     C2    2  -0.547  -0.155  -0.112
    1UNL     C3    3  -0.442  -0.059  -0.044
    1UNL     C4    4  -0.493   0.083  -0.023
    1UNL     N1    5  -0.391   0.174   0.035
    1UNL     C5    6  -0.452   0.306   0.062
    1UNL     C6    7  -0.315   0.116   0.160
    1UNL     C7    8  -0.165   0.088   0.128
    1UNL     C8    9  -0.135   0.072  -0.015
    1UNL     C9   10  -0.140  -0.044  -0.088
    1UNL     N2   11  -0.088  -0.021  -0.215
    1UNL    C10   12  -0.050   0.113  -0.227
    1UNL    C11   13  -0.015   0.182  -0.340
    1UNL    C12   14   0.017   0.311  -0.320
    1UNL    C13   15   0.013   0.376  -0.198
    1UNL    C14   16  -0.040   0.311  -0.089
    1UNL    C15   17  -0.076   0.171  -0.099
    1UNL    C16   18  -0.170  -0.177  -0.043
    1UNL    C17   19  -0.046  -0.263  -0.026
    1UNL    C18   20  -0.053  -0.398  -0.042
    1UNL     O1   21  -0.183  -0.447  -0.054
    1UNL    C19   22  -0.206  -0.584  -0.041
    1UNL    C20   23   0.055  -0.487  -0.048
    1UNL    C21   24   0.186  -0.438  -0.039
    1UNL    C22   25   0.200  -0.297  -0.020
    1UNL    C23   26   0.316  -0.217  -0.002
    1UNL    C24   27   0.276  -0.083  -0.013
    1UNL     N3   28   0.137  -0.083  -0.019
    1UNL    C25   29   0.087  -0.214  -0.011
    1UNL    C26   30   0.355   0.045  -0.022
    1UNL    C27   31   0.308   0.127   0.095
    1UNL     O2   32   0.315   0.080   0.207
    1UNL     O3   33   0.263   0.251   0.066
    1UNL    C28   34   0.189   0.308   0.169
    1UNL    C29   35   0.334   0.108  -0.163
    1UNL    C30   36   0.459   0.107  -0.250
    1UNL    C31   37   0.562   0.196  -0.176
    1UNL    C32   38   0.598   0.144  -0.033
    1UNL    C33   39   0.599   0.247   0.081
    1UNL    C34   40   0.700   0.360   0.057
    1UNL    C35   41   0.510   0.016  -0.004
    1UNL     N4   42   0.552  -0.086  -0.115
    1UNL    C36   43   0.557  -0.226  -0.079
    1UNL    C37   44   0.451  -0.271   0.028
    1UNL    C38   45   0.511  -0.044  -0.254
    1UNL    C39   46  -0.264  -0.195   0.084
    1UNL    C40   47  -0.397  -0.119   0.094
    1UNL    C41   48  -0.388  -0.011   0.208
    1UNL    C42   49  -0.526   0.027   0.277
    1UNL     O4   50  -0.531   0.111   0.369
    1UNL     O5   51  -0.636  -0.017   0.214
    1UNL    C43   52  -0.760   0.037   0.263
    1UNL     H1   53  -0.730  -0.259  -0.061
    1UNL     H2   54  -0.739  -0.081  -0.041
    1UNL     H3   55  -0.650  -0.180   0.078
    1UNL     H4   56  -0.571  -0.127  -0.215
    1UNL     H5   57  -0.502  -0.258  -0.123
    1UNL     H6   58  -0.356  -0.049  -0.122
    1UNL     H7   59  -0.521   0.127  -0.121
    1UNL     H8   60  -0.587   0.093   0.030
    1UNL     H9   61  -0.540   0.296   0.135
    1UNL    H10   62  -0.495   0.342  -0.026
    1UNL    H11   63  -0.365   0.378   0.089
    1UNL    H12   64  -0.316   0.192   0.240
    1UNL    H13   65  -0.103   0.166   0.164
    1UNL    H14   66  -0.139   0.004   0.185
    1UNL    H15   67  -0.106  -0.074  -0.299
    1UNL    H16   68  -0.001   0.132  -0.436
    1UNL    H17   69   0.064   0.363  -0.402
    1UNL    H18   70   0.048   0.478  -0.197
    1UNL    H19   71  -0.055   0.376  -0.004
    1UNL    H20   72  -0.230  -0.235  -0.118
    1UNL    H21   73  -0.195  -0.618   0.058
    1UNL    H22   74  -0.304  -0.606  -0.065
    1UNL    H23   75  -0.142  -0.634  -0.107
    1UNL    H24   76   0.033  -0.593  -0.047
    1UNL    H25   77   0.261  -0.508  -0.050
    1UNL    H26   78   0.073  -0.009  -0.047
    1UNL    H27   79   0.237   0.299   0.261
    1UNL    H28   80   0.180   0.412   0.141
    1UNL    H29   81   0.083   0.268   0.184
    1UNL    H30   82   0.252   0.064  -0.219
    1UNL    H31   83   0.312   0.218  -0.151
    1UNL    H32   84   0.443   0.151  -0.344
    1UNL    H33   85   0.650   0.217  -0.240
    1UNL    H34   86   0.514   0.287  -0.165
    1UNL    H35   87   0.705   0.113  -0.038
    1UNL    H36   88   0.611   0.196   0.178
    1UNL    H37   89   0.498   0.285   0.089
    1UNL    H38   90   0.687   0.414  -0.041
    1UNL    H39   91   0.678   0.432   0.130
    1UNL    H40   92   0.809   0.340   0.071
    1UNL    H41   93   0.536  -0.037   0.088
    1UNL    H42   94   0.544  -0.277  -0.173
    1UNL    H43   95   0.662  -0.249  -0.046
    1UNL    H44   96   0.451  -0.387   0.026
    1UNL    H45   97   0.484  -0.252   0.131
    1UNL    H46   98   0.596  -0.050  -0.320
    1UNL    H47   99   0.431  -0.108  -0.295
    1UNL    H48  100  -0.286  -0.303   0.090
    1UNL    H49  101  -0.198  -0.162   0.164
    1UNL    H50  102  -0.463  -0.199   0.129
    1UNL    H51  103  -0.320  -0.055   0.293
    1UNL    H52  104  -0.834  -0.042   0.265
    1UNL    H53  105  -0.733   0.079   0.359
    1UNL    H54  106  -0.802   0.112   0.194
   0.00000   0.00000   0.00000   0.00000   0.00000   0.00000   0.00000   0.00000   0.00000
Generated with MDTraj, t= 57.0
 106
    1UNL     C1    1  -0.689  -0.166  -0.048
    1UNL     C2    2  -0.556  -0.155  -0.108
    1UNL     C3    3  -0.454  -0.067  -0.041
    1UNL     C4    4  -0.507   0.078  -0.028
    1UNL     N1    5  -0.401   0.162   0.028
    1UNL     C5    6  -0.444   0.307   0.023
    1UNL     C6    7  -0.332   0.118   0.157
    1UNL     C7    8  -0.181   0.103   0.135
    1UNL     C8    9  -0.149   0.085  -0.009
    1UNL     C9   10  -0.141  -0.037  -0.080
    1UNL     N2   11  -0.099  -0.014  -0.211
    1UNL    C10   12  -0.058   0.124  -0.216
    1UNL    C11   13   0.024   0.187  -0.313
    1UNL    C12   14   0.046   0.319  -0.287
    1UNL    C13   15  -0.006   0.386  -0.181
    1UNL    C14   16  -0.079   0.321  -0.085
    1UNL    C15   17  -0.098   0.185  -0.095
    1UNL    C16   18  -0.172  -0.180  -0.047
    1UNL    C17   19  -0.048  -0.266  -0.035
    1UNL    C18   20  -0.060  -0.407  -0.036
    1UNL     O1   21  -0.186  -0.459  -0.067
    1UNL    C19   22  -0.220  -0.570   0.014
    1UNL    C20   23   0.046  -0.495  -0.012
    1UNL    C21   24   0.177  -0.447  -0.015
    1UNL    C22   25   0.202  -0.311  -0.016
    1UNL    C23   26   0.317  -0.225  -0.018
    1UNL    C24   27   0.281  -0.094  -0.028
    1UNL     N3   28   0.139  -0.096  -0.037
    1UNL    C25   29   0.090  -0.225  -0.021
    1UNL    C26   30   0.366   0.034  -0.024
    1UNL    C27   31   0.321   0.127   0.094
    1UNL     O2   32   0.337   0.082   0.207
    1UNL     O3   33   0.267   0.247   0.061
    1UNL    C28   34   0.241   0.326   0.174
    1UNL    C29   35   0.342   0.105  -0.173
    1UNL    C30   36   0.479   0.123  -0.251
    1UNL    C31   37   0.577   0.205  -0.171
    1UNL    C32   38   0.604   0.141  -0.034
    1UNL    C33   39   0.588   0.244   0.080
    1UNL    C34   40   0.676   0.372   0.074
    1UNL    C35   41   0.520   0.008  -0.016
    1UNL     N4   42   0.560  -0.085  -0.121
    1UNL    C36   43   0.553  -0.232  -0.112
    1UNL    C37   44   0.458  -0.275  -0.002
    1UNL    C38   45   0.537  -0.025  -0.259
    1UNL    C39   46  -0.260  -0.197   0.085
    1UNL    C40   47  -0.396  -0.121   0.092
    1UNL    C41   48  -0.395  -0.012   0.202
    1UNL    C42   49  -0.530   0.023   0.262
    1UNL     O4   50  -0.527   0.109   0.351
    1UNL     O5   51  -0.649  -0.027   0.217
    1UNL    C43   52  -0.761   0.026   0.280
    1UNL     H1   53  -0.752  -0.234  -0.104
    1UNL     H2   54  -0.744  -0.071  -0.039
    1UNL     H3   55  -0.684  -0.207   0.051
    1UNL     H4   56  -0.575  -0.127  -0.213
    1UNL     H5   57  -0.505  -0.255  -0.116
    1UNL     H6   58  -0.369  -0.053  -0.122
    1UNL     H7   59  -0.541   0.117  -0.127
    1UNL     H8   60  -0.596   0.070   0.030
    1UNL     H9   61  -0.539   0.316   0.080
    1UNL    H10   62  -0.469   0.337  -0.079
    1UNL    H11   63  -0.357   0.376   0.057
    1UNL    H12   64  -0.348   0.195   0.234
    1UNL    H13   65  -0.126   0.184   0.174
    1UNL    H14   66  -0.148   0.017   0.187
    1UNL    H15   67  -0.051  -0.083  -0.267
    1UNL    H16   68   0.061   0.132  -0.400
    1UNL    H17   69   0.118   0.372  -0.352
    1UNL    H18   70  -0.001   0.494  -0.185
    1UNL    H19   71  -0.131   0.381  -0.009
    1UNL    H20   72  -0.244  -0.224  -0.117
    1UNL    H21   73  -0.168  -0.572   0.107
    1UNL    H22   74  -0.320  -0.566   0.039
    1UNL    H23   75  -0.193  -0.661  -0.044
    1UNL    H24   76   0.025  -0.600   0.008
    1UNL    H25   77   0.252  -0.531  -0.030
    1UNL    H26   78   0.076  -0.017  -0.040
    1UNL    H27   79   0.322   0.341   0.238
    1UNL    H28   80   0.200   0.420   0.138
    1UNL    H29   81   0.162   0.281   0.243
    1UNL    H30   82   0.280   0.046  -0.236
    1UNL    H31   83   0.287   0.205  -0.165
    1UNL    H32   84   0.461   0.169  -0.344
    1UNL    H33   85   0.668   0.222  -0.237
    1UNL    H34   86   0.534   0.294  -0.153
    1UNL    H35   87   0.711   0.115  -0.045
    1UNL    H36   88   0.608   0.196   0.177
    1UNL    H37   89   0.488   0.276   0.082
    1UNL    H38   90   0.661   0.431  -0.021
    1UNL    H39   91   0.653   0.429   0.162
    1UNL    H40   92   0.784   0.345   0.069
    1UNL    H41   93   0.537  -0.031   0.085
    1UNL    H42   94   0.512  -0.268  -0.205
    1UNL    H43   95   0.658  -0.274  -0.111
    1UNL    H44   96   0.453  -0.388   0.013
    1UNL    H45   97   0.496  -0.238   0.096
    1UNL    H46   98   0.632  -0.029  -0.310
    1UNL    H47   99   0.466  -0.083  -0.318
    1UNL    H48  100  -0.274  -0.306   0.096
    1UNL    H49  101  -0.199  -0.164   0.169
    1UNL    H50  102  -0.464  -0.194   0.136
    1UNL    H51  103  -0.334  -0.056   0.294
    1UNL    H52  104  -0.846  -0.041   0.261
    1UNL    H53  105  -0.731   0.039   0.384
    1UNL    H54  106  -0.784   0.118   0.222
   0.00000   0.00000   0.00000   0.00000   0.00000   0.00000   0.00000   0.00000   0.00000
Generated with MDTraj, t= 58.0
 106
    1UNL     C1    1  -0.692  -0.182  -0.056
    1UNL     C2    2  -0.545  -0.175  -0.112
    1UNL     C3    3  -0.450  -0.065  -0.051
    1UNL     C4    4  -0.509   0.087  -0.044
    1UNL     N1    5  -0.399   0.171   0.007
    1UNL     C5    6  -0.431   0.318   0.000
    1UNL     C6    7  -0.342   0.128   0.138
    1UNL     C7    8  -0.186   0.127   0.132
    1UNL     C8    9  -0.128   0.091  -0.003
    1UNL     C9   10  -0.123  -0.028  -0.082
    1UNL     N2   11  -0.067  -0.003  -0.208
    1UNL    C10   12  -0.033   0.134  -0.208
    1UNL    C11   13   0.021   0.215  -0.312
    1UNL    C12   14   0.032   0.351  -0.293
    1UNL    C13   15   0.001   0.403  -0.167
    1UNL    C14   16  -0.038   0.330  -0.061
    1UNL    C15   17  -0.071   0.194  -0.084
    1UNL    C16   18  -0.165  -0.171  -0.050
    1UNL    C17   19  -0.053  -0.258  -0.015
    1UNL    C18   20  -0.073  -0.395  -0.010
    1UNL     O1   21  -0.203  -0.446  -0.012
    1UNL    C19   22  -0.211  -0.573   0.053
    1UNL    C20   23   0.038  -0.483   0.003
    1UNL    C21   24   0.171  -0.441  -0.000
    1UNL    C22   25   0.191  -0.304  -0.006
    1UNL    C23   26   0.314  -0.225  -0.016
    1UNL    C24   27   0.273  -0.095  -0.026
    1UNL     N3   28   0.136  -0.089  -0.023
    1UNL    C25   29   0.082  -0.216  -0.021
    1UNL    C26   30   0.359   0.032  -0.037
    1UNL    C27   31   0.320   0.124   0.077
    1UNL     O2   32   0.342   0.079   0.190
    1UNL     O3   33   0.254   0.244   0.050
    1UNL    C28   34   0.219   0.314   0.172
    1UNL    C29   35   0.335   0.095  -0.175
    1UNL    C30   36   0.465   0.115  -0.257
    1UNL    C31   37   0.563   0.210  -0.176
    1UNL    C32   38   0.601   0.133  -0.036
    1UNL    C33   39   0.582   0.229   0.085
    1UNL    C34   40   0.687   0.331   0.102
    1UNL    C35   41   0.512   0.004  -0.022
    1UNL     N4   42   0.550  -0.083  -0.140
    1UNL    C36   43   0.518  -0.228  -0.134
    1UNL    C37   44   0.455  -0.276  -0.001
    1UNL    C38   45   0.533  -0.023  -0.275
    1UNL    C39   46  -0.253  -0.181   0.075
    1UNL    C40   47  -0.394  -0.117   0.083
    1UNL    C41   48  -0.394  -0.007   0.192
    1UNL    C42   49  -0.529   0.012   0.250
    1UNL     O4   50  -0.532   0.094   0.341
    1UNL     O5   51  -0.632  -0.072   0.220
    1UNL    C43   52  -0.750  -0.040   0.288
    1UNL     H1   53  -0.768  -0.241  -0.108
    1UNL     H2   54  -0.736  -0.078  -0.056
    1UNL     H3   55  -0.702  -0.210   0.042
    1UNL     H4   56  -0.554  -0.151  -0.219
    1UNL     H5   57  -0.500  -0.279  -0.111
    1UNL     H6   58  -0.362  -0.041  -0.123
    1UNL     H7   59  -0.544   0.113  -0.146
    1UNL     H8   60  -0.594   0.087   0.022
    1UNL     H9   61  -0.503   0.342   0.079
    1UNL    H10   62  -0.479   0.353  -0.100
    1UNL    H11   63  -0.333   0.371   0.008
    1UNL    H12   64  -0.376   0.201   0.211
    1UNL    H13   65  -0.157   0.225   0.151
    1UNL    H14   66  -0.134   0.073   0.206
    1UNL    H15   67  -0.057  -0.068  -0.286
    1UNL    H16   68   0.059   0.160  -0.393
    1UNL    H17   69   0.055   0.407  -0.380
    1UNL    H18   70   0.021   0.509  -0.151
    1UNL    H19   71  -0.059   0.388   0.024
    1UNL    H20   72  -0.227  -0.219  -0.125
    1UNL    H21   73  -0.155  -0.572   0.144
    1UNL    H22   74  -0.313  -0.588   0.077
    1UNL    H23   75  -0.169  -0.656  -0.014
    1UNL    H24   76   0.014  -0.587  -0.010
    1UNL    H25   77   0.247  -0.516  -0.006
    1UNL    H26   78   0.095   0.001  -0.042
    1UNL    H27   79   0.292   0.376   0.213
    1UNL    H28   80   0.136   0.379   0.144
    1UNL    H29   81   0.191   0.245   0.258
    1UNL    H30   82   0.273   0.031  -0.231
    1UNL    H31   83   0.280   0.196  -0.167
    1UNL    H32   84   0.439   0.159  -0.351
    1UNL    H33   85   0.655   0.218  -0.237
    1UNL    H34   86   0.521   0.307  -0.162
    1UNL    H35   87   0.704   0.090  -0.044
    1UNL    H36   88   0.571   0.162   0.172
    1UNL    H37   89   0.489   0.278   0.078
    1UNL    H38   90   0.705   0.401   0.016
    1UNL    H39   91   0.672   0.380   0.199
    1UNL    H40   92   0.784   0.280   0.098
    1UNL    H41   93   0.534  -0.044   0.074
    1UNL    H42   94   0.461  -0.261  -0.221
    1UNL    H43   95   0.613  -0.286  -0.148
    1UNL    H44   96   0.462  -0.387   0.008
    1UNL    H45   97   0.506  -0.231   0.091
    1UNL    H46   98   0.627  -0.005  -0.328
    1UNL    H47   99   0.480  -0.095  -0.335
    1UNL    H48  100  -0.267  -0.287   0.106
    1UNL    H49  101  -0.186  -0.135   0.150
    1UNL    H50  102  -0.469  -0.189   0.115
    1UNL    H51  103  -0.323  -0.040   0.280
    1UNL    H52  104  -0.830  -0.004   0.220
    1UNL    H53  105  -0.775  -0.124   0.352
    1UNL    H54  106  -0.733   0.053   0.349
   0.00000   0.00000   0.00000   0.00000   0.00000   0.00000   0.00000   0.00000   0.00000
Generated with MDTraj, t= 59.0
 106
    1UNL     C1    1  -0.666  -0.182  -0.070
    1UNL     C2    2  -0.527  -0.163  -0.127
    1UNL     C3    3  -0.441  -0.060  -0.059
    1UNL     C4    4  -0.490   0.084  -0.050
    1UNL     N1    5  -0.387   0.180   0.004
    1UNL     C5    6  -0.419   0.324  -0.022
    1UNL     C6    7  -0.339   0.133   0.137
    1UNL     C7    8  -0.183   0.129   0.137
    1UNL     C8    9  -0.140   0.105  -0.002
    1UNL     C9   10  -0.132  -0.013  -0.072
    1UNL     N2   11  -0.083   0.007  -0.200
    1UNL    C10   12  -0.052   0.141  -0.210
    1UNL    C11   13   0.011   0.212  -0.315
    1UNL    C12   14   0.041   0.337  -0.284
    1UNL    C13   15   0.020   0.406  -0.161
    1UNL    C14   16  -0.046   0.335  -0.064
    1UNL    C15   17  -0.085   0.203  -0.086
    1UNL    C16   18  -0.159  -0.159  -0.026
    1UNL    C17   19  -0.041  -0.251  -0.005
    1UNL    C18   20  -0.064  -0.387   0.008
    1UNL     O1   21  -0.199  -0.433  -0.004
    1UNL    C19   22  -0.226  -0.557   0.062
    1UNL    C20   23   0.038  -0.483   0.022
    1UNL    C21   24   0.169  -0.443   0.014
    1UNL    C22   25   0.199  -0.305  -0.011
    1UNL    C23   26   0.319  -0.230  -0.025
    1UNL    C24   27   0.281  -0.096  -0.035
    1UNL     N3   28   0.146  -0.088  -0.037
    1UNL    C25   29   0.093  -0.207  -0.014
    1UNL    C26   30   0.357   0.035  -0.040
    1UNL    C27   31   0.311   0.123   0.080
    1UNL     O2   32   0.349   0.092   0.193
    1UNL     O3   33   0.227   0.225   0.045
    1UNL    C28   34   0.175   0.293   0.158
    1UNL    C29   35   0.315   0.110  -0.170
    1UNL    C30   36   0.445   0.119  -0.251
    1UNL    C31   37   0.554   0.203  -0.168
    1UNL    C32   38   0.597   0.127  -0.041
    1UNL    C33   39   0.604   0.211   0.092
    1UNL    C34   40   0.736   0.287   0.100
    1UNL    C35   41   0.513   0.008  -0.033
    1UNL     N4   42   0.548  -0.078  -0.150
    1UNL    C36   43   0.547  -0.230  -0.135
    1UNL    C37   44   0.460  -0.278  -0.019
    1UNL    C38   45   0.505  -0.015  -0.282
    1UNL    C39   46  -0.253  -0.177   0.091
    1UNL    C40   47  -0.393  -0.111   0.084
    1UNL    C41   48  -0.408   0.002   0.194
    1UNL    C42   49  -0.545   0.012   0.250
    1UNL     O4   50  -0.568   0.106   0.325
    1UNL     O5   51  -0.628  -0.095   0.219
    1UNL    C43   52  -0.736  -0.095   0.303
    1UNL     H1   53  -0.733  -0.219  -0.147
    1UNL     H2   54  -0.702  -0.080  -0.044
    1UNL     H3   55  -0.662  -0.243   0.017
    1UNL     H4   56  -0.535  -0.148  -0.235
    1UNL     H5   57  -0.479  -0.263  -0.106
    1UNL     H6   58  -0.347  -0.050  -0.119
    1UNL     H7   59  -0.530   0.111  -0.148
    1UNL     H8   60  -0.576   0.075   0.018
    1UNL     H9   61  -0.525   0.344   0.006
    1UNL    H10   62  -0.410   0.348  -0.137
    1UNL    H11   63  -0.347   0.389   0.024
    1UNL    H12   64  -0.377   0.203   0.211
    1UNL    H13   65  -0.141   0.220   0.165
    1UNL    H14   66  -0.131   0.068   0.208
    1UNL    H15   67  -0.053  -0.046  -0.283
    1UNL    H16   68   0.035   0.158  -0.410
    1UNL    H17   69   0.104   0.391  -0.356
    1UNL    H18   70   0.041   0.510  -0.155
    1UNL    H19   71  -0.055   0.372   0.039
    1UNL    H20   72  -0.203  -0.216  -0.109
    1UNL    H21   73  -0.143  -0.624   0.080
    1UNL    H22   74  -0.271  -0.528   0.159
    1UNL    H23   75  -0.291  -0.624  -0.006
    1UNL    H24   76   0.024  -0.579   0.068
    1UNL    H25   77   0.247  -0.514   0.024
    1UNL    H26   78   0.090  -0.015  -0.077
    1UNL    H27   79   0.231   0.291   0.248
    1UNL    H28   80   0.167   0.394   0.119
    1UNL    H29   81   0.072   0.254   0.184
    1UNL    H30   82   0.242   0.055  -0.227
    1UNL    H31   83   0.270   0.209  -0.144
    1UNL    H32   84   0.428   0.162  -0.348
    1UNL    H33   85   0.645   0.218  -0.224
    1UNL    H34   86   0.505   0.303  -0.135
    1UNL    H35   87   0.697   0.083  -0.063
    1UNL    H36   88   0.590   0.154   0.185
    1UNL    H37   89   0.516   0.272   0.088
    1UNL    H38   90   0.772   0.322   0.001
    1UNL    H39   91   0.729   0.372   0.175
    1UNL    H40   92   0.822   0.225   0.123
    1UNL    H41   93   0.550  -0.029   0.065
    1UNL    H42   94   0.496  -0.276  -0.220
    1UNL    H43   95   0.650  -0.271  -0.141
    1UNL    H44   96   0.452  -0.388  -0.024
    1UNL    H45   97   0.518  -0.244   0.077
    1UNL    H46   98   0.595  -0.011  -0.344
    1UNL    H47   99   0.436  -0.070  -0.342
    1UNL    H48  100  -0.273  -0.282   0.114
    1UNL    H49  101  -0.200  -0.147   0.182
    1UNL    H50  102  -0.467  -0.187   0.098
    1UNL    H51  103  -0.338  -0.035   0.280
    1UNL    H52  104  -0.793  -0.000   0.298
    1UNL    H53  105  -0.797  -0.182   0.287
    1UNL    H54  106  -0.701  -0.096   0.410
   0.00000   0.00000   0.00000   0.00000   0.00000   0.00000   0.00000   0.00000   0.00000
Generated with MDTraj, t= 60.0
 106
    1UNL     C1    1  -0.654  -0.181  -0.084
    1UNL     C2    2  -0.517  -0.149  -0.144
    1UNL     C3    3  -0.433  -0.045  -0.059
    1UNL     C4    4  -0.510   0.084  -0.033
    1UNL     N1    5  -0.416   0.186   0.024
    1UNL     C5    6  -0.418   0.324  -0.026
    1UNL     C6    7  -0.349   0.141   0.158
    1UNL     C7    8  -0.191   0.122   0.142
    1UNL     C8    9  -0.146   0.094   0.007
    1UNL     C9   10  -0.139  -0.027  -0.059
    1UNL     N2   11  -0.069  -0.009  -0.181
    1UNL    C10   12  -0.033   0.116  -0.196
    1UNL    C11   13   0.026   0.192  -0.307
    1UNL    C12   14   0.035   0.331  -0.295
    1UNL    C13   15  -0.006   0.398  -0.176
    1UNL    C14   16  -0.067   0.330  -0.075
    1UNL    C15   17  -0.090   0.188  -0.087
    1UNL    C16   18  -0.176  -0.167  -0.029
    1UNL    C17   19  -0.054  -0.252  -0.014
    1UNL    C18   20  -0.075  -0.394  -0.010
    1UNL     O1   21  -0.202  -0.453  -0.024
    1UNL    C19   22  -0.217  -0.548   0.075
    1UNL    C20   23   0.038  -0.477   0.007
    1UNL    C21   24   0.168  -0.435   0.005
    1UNL    C22   25   0.199  -0.298   0.005
    1UNL    C23   26   0.319  -0.224  -0.012
    1UNL    C24   27   0.272  -0.096  -0.034
    1UNL     N3   28   0.136  -0.084  -0.034
    1UNL    C25   29   0.086  -0.210  -0.013
    1UNL    C26   30   0.360   0.035  -0.042
    1UNL    C27   31   0.321   0.122   0.080
    1UNL     O2   32   0.387   0.105   0.182
    1UNL     O3   33   0.216   0.217   0.070
    1UNL    C28   34   0.185   0.271   0.197
    1UNL    C29   35   0.341   0.114  -0.179
    1UNL    C30   36   0.475   0.123  -0.259
    1UNL    C31   37   0.579   0.214  -0.183
    1UNL    C32   38   0.605   0.134  -0.049
    1UNL    C33   39   0.619   0.229   0.077
    1UNL    C34   40   0.757   0.302   0.090
    1UNL    C35   41   0.511   0.007  -0.035
    1UNL     N4   42   0.558  -0.080  -0.148
    1UNL    C36   43   0.526  -0.225  -0.150
    1UNL    C37   44   0.457  -0.271  -0.021
    1UNL    C38   45   0.538  -0.016  -0.281
    1UNL    C39   46  -0.265  -0.183   0.092
    1UNL    C40   47  -0.397  -0.104   0.085
    1UNL    C41   48  -0.415   0.004   0.205
    1UNL    C42   49  -0.559   0.013   0.255
    1UNL     O4   50  -0.594   0.129   0.271
    1UNL     O5   51  -0.623  -0.109   0.269
    1UNL    C43   52  -0.760  -0.086   0.296
    1UNL     H1   53  -0.700  -0.276  -0.108
    1UNL     H2   54  -0.728  -0.116  -0.125
    1UNL     H3   55  -0.669  -0.168   0.026
    1UNL     H4   56  -0.530  -0.102  -0.241
    1UNL     H5   57  -0.446  -0.235  -0.153
    1UNL     H6   58  -0.338  -0.021  -0.102
    1UNL     H7   59  -0.556   0.113  -0.125
    1UNL     H8   60  -0.597   0.067   0.034
    1UNL     H9   61  -0.528   0.356  -0.020
    1UNL    H10   62  -0.380   0.339  -0.131
    1UNL    H11   63  -0.355   0.388   0.037
    1UNL    H12   64  -0.377   0.213   0.235
    1UNL    H13   65  -0.143   0.207   0.178
    1UNL    H14   66  -0.142   0.047   0.204
    1UNL    H15   67  -0.033  -0.082  -0.242
    1UNL    H16   68   0.055   0.133  -0.387
    1UNL    H17   69   0.077   0.388  -0.375
    1UNL    H18   70   0.019   0.507  -0.169
    1UNL    H19   71  -0.097   0.388   0.009
    1UNL    H20   72  -0.224  -0.220  -0.110
    1UNL    H21   73  -0.230  -0.644   0.021
    1UNL    H22   74  -0.127  -0.539   0.147
    1UNL    H23   75  -0.317  -0.532   0.124
    1UNL    H24   76   0.011  -0.582   0.012
    1UNL    H25   77   0.255  -0.505  -0.005
    1UNL    H26   78   0.082  -0.001  -0.014
    1UNL    H27   79   0.265   0.273   0.266
    1UNL    H28   80   0.143   0.370   0.178
    1UNL    H29   81   0.094   0.211   0.228
    1UNL    H30   82   0.267   0.057  -0.239
    1UNL    H31   83   0.297   0.212  -0.166
    1UNL    H32   84   0.463   0.167  -0.357
    1UNL    H33   85   0.668   0.224  -0.241
    1UNL    H34   86   0.540   0.324  -0.154
    1UNL    H35   87   0.700   0.075  -0.062
    1UNL    H36   88   0.614   0.157   0.160
    1UNL    H37   89   0.538   0.297   0.095
    1UNL    H38   90   0.773   0.388   0.025
    1UNL    H39   91   0.779   0.327   0.201
    1UNL    H40   92   0.828   0.234   0.048
    1UNL    H41   93   0.539  -0.032   0.064
    1UNL    H42   94   0.463  -0.242  -0.238
    1UNL    H43   95   0.612  -0.291  -0.172
    1UNL    H44   96   0.468  -0.381  -0.015
    1UNL    H45   97   0.516  -0.228   0.069
    1UNL    H46   98   0.629  -0.007  -0.341
    1UNL    H47   99   0.475  -0.078  -0.340
    1UNL    H48  100  -0.284  -0.291   0.088
    1UNL    H49  101  -0.216  -0.181   0.190
    1UNL    H50  102  -0.474  -0.174   0.107
    1UNL    H51  103  -0.355  -0.042   0.291
    1UNL    H52  104  -0.774   0.007   0.353
    1UNL    H53  105  -0.818  -0.086   0.207
    1UNL    H54  106  -0.796  -0.164   0.368
   0.00000   0.00000   0.00000   0.00000   0.00000   0.00000   0.00000   0.00000   0.00000
Generated with MDTraj, t= 61.0
 106
    1UNL     C1    1  -0.683  -0.167  -0.097
    1UNL     C2    2  -0.538  -0.164  -0.140
    1UNL     C3    3  -0.448  -0.064  -0.061
    1UNL     C4    4  -0.498   0.079  -0.052
    1UNL     N1    5  -0.401   0.173   0.012
    1UNL     C5    6  -0.434   0.316   0.024
    1UNL     C6    7  -0.351   0.124   0.148
    1UNL     C7    8  -0.193   0.128   0.131
    1UNL     C8    9  -0.150   0.098  -0.006
    1UNL     C9   10  -0.143  -0.026  -0.072
    1UNL     N2   11  -0.080  -0.008  -0.193
    1UNL    C10   12  -0.054   0.134  -0.204
    1UNL    C11   13   0.009   0.202  -0.314
    1UNL    C12   14   0.036   0.330  -0.298
    1UNL    C13   15  -0.009   0.402  -0.178
    1UNL    C14   16  -0.069   0.335  -0.070
    1UNL    C15   17  -0.095   0.202  -0.090
    1UNL    C16   18  -0.165  -0.168  -0.021
    1UNL    C17   19  -0.041  -0.249  -0.005
    1UNL    C18   20  -0.065  -0.389  -0.003
    1UNL     O1   21  -0.200  -0.438   0.004
    1UNL    C19   22  -0.197  -0.567   0.063
    1UNL    C20   23   0.047  -0.477  -0.011
    1UNL    C21   24   0.173  -0.435  -0.030
    1UNL    C22   25   0.200  -0.296  -0.019
    1UNL    C23   26   0.325  -0.226  -0.022
    1UNL    C24   27   0.295  -0.090  -0.003
    1UNL     N3   28   0.155  -0.081   0.005
    1UNL    C25   29   0.091  -0.203  -0.007
    1UNL    C26   30   0.384   0.034  -0.022
    1UNL    C27   31   0.342   0.122   0.098
    1UNL     O2   32   0.410   0.118   0.198
    1UNL     O3   33   0.229   0.197   0.073
    1UNL    C28   34   0.184   0.275   0.185
    1UNL    C29   35   0.338   0.103  -0.158
    1UNL    C30   36   0.459   0.119  -0.251
    1UNL    C31   37   0.564   0.201  -0.168
    1UNL    C32   38   0.624   0.116  -0.043
    1UNL    C33   39   0.642   0.204   0.084
    1UNL    C34   40   0.722   0.330   0.061
    1UNL    C35   41   0.531  -0.006  -0.030
    1UNL     N4   42   0.556  -0.083  -0.155
    1UNL    C36   43   0.531  -0.232  -0.156
    1UNL    C37   44   0.460  -0.276  -0.030
    1UNL    C38   45   0.520  -0.018  -0.282
    1UNL    C39   46  -0.257  -0.173   0.103
    1UNL    C40   47  -0.402  -0.114   0.087
    1UNL    C41   48  -0.421  -0.002   0.198
    1UNL    C42   49  -0.569   0.020   0.234
    1UNL     O4   50  -0.607   0.132   0.213
    1UNL     O5   51  -0.632  -0.091   0.290
    1UNL    C43   52  -0.765  -0.058   0.325
    1UNL     H1   53  -0.742  -0.192  -0.183
    1UNL     H2   54  -0.714  -0.073  -0.067
    1UNL     H3   55  -0.706  -0.244  -0.014
    1UNL     H4   56  -0.529  -0.112  -0.235
    1UNL     H5   57  -0.493  -0.267  -0.143
    1UNL     H6   58  -0.356  -0.061  -0.111
    1UNL     H7   59  -0.533   0.113  -0.146
    1UNL     H8   60  -0.591   0.092   0.008
    1UNL     H9   61  -0.521   0.327   0.100
    1UNL    H10   62  -0.470   0.352  -0.070
    1UNL    H11   63  -0.343   0.382   0.047
    1UNL    H12   64  -0.368   0.203   0.223
    1UNL    H13   65  -0.160   0.225   0.155
    1UNL    H14   66  -0.139   0.071   0.205
    1UNL    H15   67  -0.066  -0.073  -0.272
    1UNL    H16   68   0.039   0.152  -0.409
    1UNL    H17   69   0.084   0.388  -0.378
    1UNL    H18   70   0.002   0.505  -0.166
    1UNL    H19   71  -0.107   0.391   0.014
    1UNL    H20   72  -0.213  -0.229  -0.096
    1UNL    H21   73  -0.162  -0.640  -0.019
    1UNL    H22   74  -0.122  -0.562   0.155
    1UNL    H23   75  -0.297  -0.605   0.088
    1UNL    H24   76   0.021  -0.580  -0.017
    1UNL    H25   77   0.251  -0.503  -0.027
    1UNL    H26   78   0.101  -0.000  -0.021
    1UNL    H27   79   0.216   0.377   0.182
    1UNL    H28   80   0.074   0.264   0.191
    1UNL    H29   81   0.219   0.211   0.273
    1UNL    H30   82   0.258   0.041  -0.209
    1UNL    H31   83   0.290   0.194  -0.142
    1UNL    H32   84   0.423   0.171  -0.340
    1UNL    H33   85   0.643   0.242  -0.231
    1UNL    H34   86   0.507   0.292  -0.127
    1UNL    H35   87   0.719   0.074  -0.084
    1UNL    H36   88   0.683   0.149   0.168
    1UNL    H37   89   0.541   0.228   0.112
    1UNL    H38   90   0.719   0.371  -0.039
    1UNL    H39   91   0.680   0.408   0.136
    1UNL    H40   92   0.829   0.316   0.072
    1UNL    H41   93   0.548  -0.065   0.059
    1UNL    H42   94   0.477  -0.262  -0.248
    1UNL    H43   95   0.629  -0.278  -0.176
    1UNL    H44   96   0.446  -0.387  -0.029
    1UNL    H45   97   0.519  -0.254   0.065
    1UNL    H46   98   0.605  -0.010  -0.350
    1UNL    H47   99   0.449  -0.079  -0.331
    1UNL    H48  100  -0.270  -0.268   0.156
    1UNL    H49  101  -0.196  -0.113   0.173
    1UNL    H50  102  -0.475  -0.184   0.119
    1UNL    H51  103  -0.371  -0.031   0.295
    1UNL    H52  104  -0.767  -0.033   0.431
    1UNL    H53  105  -0.799   0.024   0.268
    1UNL    H54  106  -0.830  -0.149   0.318
   0.00000   0.00000   0.00000   0.00000   0.00000   0.00000   0.00000   0.00000   0.00000
Generated with MDTraj, t= 62.0
 106
    1UNL     C1    1  -0.678  -0.146  -0.044
    1UNL     C2    2  -0.533  -0.154  -0.124
    1UNL     C3    3  -0.432  -0.052  -0.069
    1UNL     C4    4  -0.486   0.093  -0.079
    1UNL     N1    5  -0.409   0.188  -0.002
    1UNL     C5    6  -0.490   0.312   0.014
    1UNL     C6    7  -0.356   0.138   0.129
    1UNL     C7    8  -0.197   0.137   0.136
    1UNL     C8    9  -0.131   0.092   0.006
    1UNL     C9   10  -0.125  -0.028  -0.061
    1UNL     N2   11  -0.074  -0.003  -0.191
    1UNL    C10   12  -0.043   0.130  -0.199
    1UNL    C11   13  -0.003   0.204  -0.307
    1UNL    C12   14  -0.001   0.344  -0.288
    1UNL    C13   15  -0.011   0.405  -0.166
    1UNL    C14   16  -0.056   0.328  -0.061
    1UNL    C15   17  -0.073   0.192  -0.077
    1UNL    C16   18  -0.163  -0.173  -0.028
    1UNL    C17   19  -0.043  -0.267  -0.007
    1UNL    C18   20  -0.059  -0.404   0.003
    1UNL     O1   21  -0.188  -0.451  -0.001
    1UNL    C19   22  -0.215  -0.588   0.026
    1UNL    C20   23   0.053  -0.491  -0.007
    1UNL    C21   24   0.181  -0.456  -0.015
    1UNL    C22   25   0.204  -0.313  -0.015
    1UNL    C23   26   0.327  -0.237  -0.020
    1UNL    C24   27   0.288  -0.104  -0.020
    1UNL     N3   28   0.148  -0.099  -0.016
    1UNL    C25   29   0.095  -0.227  -0.006
    1UNL    C26   30   0.360   0.029  -0.026
    1UNL    C27   31   0.331   0.111   0.106
    1UNL     O2   32   0.402   0.096   0.203
    1UNL     O3   33   0.222   0.196   0.096
    1UNL    C28   34   0.203   0.284   0.200
    1UNL    C29   35   0.326   0.107  -0.157
    1UNL    C30   36   0.451   0.125  -0.252
    1UNL    C31   37   0.560   0.206  -0.180
    1UNL    C32   38   0.605   0.136  -0.046
    1UNL    C33   39   0.628   0.227   0.076
    1UNL    C34   40   0.736   0.332   0.041
    1UNL    C35   41   0.521   0.009  -0.022
    1UNL     N4   42   0.550  -0.078  -0.141
    1UNL    C36   43   0.551  -0.228  -0.136
    1UNL    C37   44   0.469  -0.279  -0.025
    1UNL    C38   45   0.499  -0.020  -0.275
    1UNL    C39   46  -0.259  -0.184   0.087
    1UNL    C40   47  -0.396  -0.107   0.076
    1UNL    C41   48  -0.411   0.006   0.177
    1UNL    C42   49  -0.559   0.032   0.216
    1UNL     O4   50  -0.611   0.138   0.195
    1UNL     O5   51  -0.611  -0.077   0.283
    1UNL    C43   52  -0.734  -0.047   0.335
    1UNL     H1   53  -0.710  -0.250  -0.034
    1UNL     H2   54  -0.742  -0.085  -0.099
    1UNL     H3   55  -0.660  -0.101   0.058
    1UNL     H4   56  -0.548  -0.146  -0.230
    1UNL     H5   57  -0.484  -0.251  -0.097
    1UNL     H6   58  -0.343  -0.064  -0.121
    1UNL     H7   59  -0.476   0.127  -0.180
    1UNL     H8   60  -0.597   0.103  -0.069
    1UNL     H9   61  -0.594   0.291   0.056
    1UNL    H10   62  -0.506   0.361  -0.079
    1UNL    H11   63  -0.433   0.391   0.077
    1UNL    H12   64  -0.386   0.217   0.203
    1UNL    H13   65  -0.170   0.238   0.161
    1UNL    H14   66  -0.169   0.064   0.211
    1UNL    H15   67  -0.029  -0.081  -0.241
    1UNL    H16   68   0.004   0.137  -0.389
    1UNL    H17   69   0.024   0.407  -0.369
    1UNL    H18   70  -0.017   0.517  -0.153
    1UNL    H19   71  -0.076   0.370   0.038
    1UNL    H20   72  -0.215  -0.228  -0.109
    1UNL    H21   73  -0.214  -0.656  -0.069
    1UNL    H22   74  -0.142  -0.630   0.108
    1UNL    H23   75  -0.319  -0.599   0.059
    1UNL    H24   76   0.029  -0.595   0.012
    1UNL    H25   77   0.270  -0.522  -0.005
    1UNL    H26   78   0.082  -0.021  -0.001
    1UNL    H27   79   0.171   0.376   0.154
    1UNL    H28   80   0.126   0.234   0.262
    1UNL    H29   81   0.298   0.280   0.260
    1UNL    H30   82   0.235   0.063  -0.209
    1UNL    H31   83   0.296   0.203  -0.132
    1UNL    H32   84   0.419   0.176  -0.346
    1UNL    H33   85   0.640   0.239  -0.253
    1UNL    H34   86   0.520   0.300  -0.144
    1UNL    H35   87   0.706   0.097  -0.074
    1UNL    H36   88   0.644   0.169   0.166
    1UNL    H37   89   0.531   0.278   0.092
    1UNL    H38   90   0.697   0.434   0.028
    1UNL    H39   91   0.812   0.342   0.124
    1UNL    H40   92   0.778   0.315  -0.059
    1UNL    H41   93   0.549  -0.044   0.066
    1UNL    H42   94   0.537  -0.270  -0.239
    1UNL    H43   95   0.655  -0.259  -0.115
    1UNL    H44   96   0.474  -0.392  -0.026
    1UNL    H45   97   0.507  -0.243   0.074
    1UNL    H46   98   0.582  -0.020  -0.346
    1UNL    H47   99   0.421  -0.074  -0.324
    1UNL    H48  100  -0.286  -0.289   0.099
    1UNL    H49  101  -0.216  -0.154   0.183
    1UNL    H50  102  -0.471  -0.177   0.099
    1UNL    H51  103  -0.362  -0.027   0.272
    1UNL    H52  104  -0.721   0.038   0.401
    1UNL    H53  105  -0.802  -0.017   0.259
    1UNL    H54  106  -0.762  -0.134   0.401
   0.00000   0.00000   0.00000   0.00000   0.00000   0.00000   0.00000   0.00000   0.00000
Generated with MDTraj, t= 63.0
 106
    1UNL     C1    1  -0.672  -0.147  -0.063
    1UNL     C2    2  -0.537  -0.153  -0.126
    1UNL     C3    3  -0.438  -0.065  -0.052
    1UNL     C4    4  -0.483   0.087  -0.051
    1UNL     N1    5  -0.375   0.168   0.006
    1UNL     C5    6  -0.398   0.312  -0.012
    1UNL     C6    7  -0.335   0.135   0.146
    1UNL     C7    8  -0.180   0.109   0.143
    1UNL     C8    9  -0.136   0.093   0.000
    1UNL     C9   10  -0.123  -0.025  -0.074
    1UNL     N2   11  -0.069   0.001  -0.196
    1UNL    C10   12  -0.041   0.139  -0.210
    1UNL    C11   13   0.021   0.212  -0.316
    1UNL    C12   14   0.034   0.346  -0.302
    1UNL    C13   15  -0.021   0.410  -0.186
    1UNL    C14   16  -0.069   0.333  -0.080
    1UNL    C15   17  -0.084   0.199  -0.091
    1UNL    C16   18  -0.163  -0.167  -0.035
    1UNL    C17   19  -0.040  -0.259  -0.016
    1UNL    C18   20  -0.059  -0.395  -0.007
    1UNL     O1   21  -0.192  -0.442  -0.018
    1UNL    C19   22  -0.213  -0.579  -0.016
    1UNL    C20   23   0.055  -0.480   0.011
    1UNL    C21   24   0.178  -0.436   0.013
    1UNL    C22   25   0.204  -0.300   0.011
    1UNL    C23   26   0.321  -0.216   0.005
    1UNL    C24   27   0.279  -0.086  -0.019
    1UNL     N3   28   0.141  -0.084  -0.014
    1UNL    C25   29   0.092  -0.217  -0.009
    1UNL    C26   30   0.357   0.038  -0.027
    1UNL    C27   31   0.327   0.111   0.109
    1UNL     O2   32   0.392   0.077   0.205
    1UNL     O3   33   0.238   0.215   0.104
    1UNL    C28   34   0.192   0.261   0.225
    1UNL    C29   35   0.314   0.106  -0.161
    1UNL    C30   36   0.431   0.115  -0.262
    1UNL    C31   37   0.541   0.199  -0.200
    1UNL    C32   38   0.596   0.140  -0.064
    1UNL    C33   39   0.595   0.232   0.063
    1UNL    C34   40   0.711   0.336   0.062
    1UNL    C35   41   0.514   0.007  -0.036
    1UNL     N4   42   0.536  -0.085  -0.145
    1UNL    C36   43   0.529  -0.239  -0.129
    1UNL    C37   44   0.458  -0.276   0.006
    1UNL    C38   45   0.487  -0.035  -0.279
    1UNL    C39   46  -0.263  -0.190   0.084
    1UNL    C40   47  -0.399  -0.114   0.094
    1UNL    C41   48  -0.399   0.006   0.195
    1UNL    C42   49  -0.549   0.030   0.235
    1UNL     O4   50  -0.610   0.119   0.190
    1UNL     O5   51  -0.603  -0.073   0.311
    1UNL    C43   52  -0.742  -0.066   0.333
    1UNL     H1   53  -0.750  -0.175  -0.136
    1UNL     H2   54  -0.700  -0.054  -0.015
    1UNL     H3   55  -0.692  -0.218   0.016
    1UNL     H4   56  -0.532  -0.122  -0.228
    1UNL     H5   57  -0.491  -0.254  -0.119
    1UNL     H6   58  -0.347  -0.076  -0.103
    1UNL     H7   59  -0.524   0.123  -0.144
    1UNL     H8   60  -0.571   0.103   0.011
    1UNL     H9   61  -0.480   0.355   0.051
    1UNL    H10   62  -0.430   0.337  -0.117
    1UNL    H11   63  -0.300   0.366   0.002
    1UNL    H12   64  -0.364   0.220   0.212
    1UNL    H13   65  -0.134   0.202   0.180
    1UNL    H14   66  -0.164   0.024   0.208
    1UNL    H15   67  -0.085  -0.050  -0.284
    1UNL    H16   68   0.080   0.165  -0.395
    1UNL    H17   69   0.080   0.400  -0.386
    1UNL    H18   70  -0.008   0.511  -0.170
    1UNL    H19   71  -0.107   0.378   0.008
    1UNL    H20   72  -0.224  -0.205  -0.119
    1UNL    H21   73  -0.146  -0.646  -0.087
    1UNL    H22   74  -0.199  -0.618   0.090
    1UNL    H23   75  -0.313  -0.602  -0.053
    1UNL    H24   76   0.034  -0.586   0.012
    1UNL    H25   77   0.265  -0.496   0.034
    1UNL    H26   78   0.100   0.007  -0.048
    1UNL    H27   79   0.088   0.282   0.212
    1UNL    H28   80   0.217   0.182   0.298
    1UNL    H29   81   0.262   0.346   0.251
    1UNL    H30   82   0.234   0.047  -0.212
    1UNL    H31   83   0.267   0.198  -0.143
    1UNL    H32   84   0.403   0.159  -0.362
    1UNL    H33   85   0.634   0.217  -0.266
    1UNL    H34   86   0.506   0.295  -0.189
    1UNL    H35   87   0.707   0.116  -0.069
    1UNL    H36   88   0.607   0.171   0.150
    1UNL    H37   89   0.495   0.280   0.076
    1UNL    H38   90   0.737   0.374  -0.039
    1UNL    H39   91   0.684   0.417   0.131
    1UNL    H40   92   0.803   0.285   0.095
    1UNL    H41   93   0.540  -0.042   0.054
    1UNL    H42   94   0.478  -0.287  -0.216
    1UNL    H43   95   0.632  -0.277  -0.133
    1UNL    H44   96   0.448  -0.387   0.030
    1UNL    H45   97   0.513  -0.223   0.084
    1UNL    H46   98   0.561  -0.045  -0.357
    1UNL    H47   99   0.407  -0.097  -0.312
    1UNL    H48  100  -0.278  -0.298   0.092
    1UNL    H49  101  -0.204  -0.170   0.174
    1UNL    H50  102  -0.475  -0.184   0.117
    1UNL    H51  103  -0.350  -0.032   0.287
    1UNL    H52  104  -0.760   0.038   0.356
    1UNL    H53  105  -0.800  -0.088   0.245
    1UNL    H54  106  -0.758  -0.128   0.427
   0.00000   0.00000   0.00000   0.00000   0.00000   0.00000   0.00000   0.00000   0.00000
Generated with MDTraj, t= 64.0
 106
    1UNL     C1    1  -0.673  -0.169  -0.059
    1UNL     C2    2  -0.545  -0.138  -0.134
    1UNL     C3    3  -0.438  -0.049  -0.067
    1UNL     C4    4  -0.498   0.095  -0.051
    1UNL     N1    5  -0.398   0.181   0.020
    1UNL     C5    6  -0.367   0.320  -0.023
    1UNL     C6    7  -0.331   0.131   0.144
    1UNL     C7    8  -0.178   0.120   0.130
    1UNL     C8    9  -0.129   0.085  -0.007
    1UNL     C9   10  -0.131  -0.033  -0.080
    1UNL     N2   11  -0.087  -0.010  -0.210
    1UNL    C10   12  -0.049   0.123  -0.221
    1UNL    C11   13  -0.003   0.199  -0.325
    1UNL    C12   14   0.036   0.330  -0.306
    1UNL    C13   15   0.033   0.384  -0.174
    1UNL    C14   16  -0.020   0.320  -0.066
    1UNL    C15   17  -0.063   0.181  -0.089
    1UNL    C16   18  -0.159  -0.172  -0.042
    1UNL    C17   19  -0.037  -0.260  -0.022
    1UNL    C18   20  -0.064  -0.400  -0.019
    1UNL     O1   21  -0.192  -0.443  -0.043
    1UNL    C19   22  -0.209  -0.582  -0.061
    1UNL    C20   23   0.045  -0.486   0.013
    1UNL    C21   24   0.166  -0.434   0.038
    1UNL    C22   25   0.190  -0.295   0.025
    1UNL    C23   26   0.313  -0.216   0.011
    1UNL    C24   27   0.277  -0.081  -0.005
    1UNL     N3   28   0.140  -0.075  -0.002
    1UNL    C25   29   0.084  -0.205   0.003
    1UNL    C26   30   0.358   0.040  -0.011
    1UNL    C27   31   0.328   0.116   0.117
    1UNL     O2   32   0.395   0.087   0.214
    1UNL     O3   33   0.219   0.206   0.100
    1UNL    C28   34   0.194   0.281   0.216
    1UNL    C29   35   0.328   0.127  -0.142
    1UNL    C30   36   0.436   0.111  -0.252
    1UNL    C31   37   0.560   0.180  -0.202
    1UNL    C32   38   0.598   0.140  -0.057
    1UNL    C33   39   0.580   0.257   0.041
    1UNL    C34   40   0.678   0.370   0.046
    1UNL    C35   41   0.512   0.008  -0.021
    1UNL     N4   42   0.530  -0.089  -0.141
    1UNL    C36   43   0.521  -0.236  -0.126
    1UNL    C37   44   0.451  -0.278   0.004
    1UNL    C38   45   0.460  -0.040  -0.272
    1UNL    C39   46  -0.266  -0.188   0.077
    1UNL    C40   47  -0.398  -0.109   0.077
    1UNL    C41   48  -0.397  -0.002   0.189
    1UNL    C42   49  -0.537   0.021   0.245
    1UNL     O4   50  -0.602   0.118   0.224
    1UNL     O5   51  -0.593  -0.087   0.306
    1UNL    C43   52  -0.724  -0.062   0.362
    1UNL     H1   53  -0.711  -0.269  -0.086
    1UNL     H2   54  -0.753  -0.094  -0.082
    1UNL     H3   55  -0.668  -0.163   0.044
    1UNL     H4   56  -0.563  -0.086  -0.227
    1UNL     H5   57  -0.502  -0.240  -0.151
    1UNL     H6   58  -0.345  -0.033  -0.119
    1UNL     H7   59  -0.527   0.140  -0.146
    1UNL     H8   60  -0.593   0.093  -0.003
    1UNL     H9   61  -0.435   0.347  -0.107
    1UNL    H10   62  -0.258   0.333  -0.068
    1UNL    H11   63  -0.371   0.388   0.060
    1UNL    H12   64  -0.355   0.207   0.222
    1UNL    H13   65  -0.132   0.221   0.146
    1UNL    H14   66  -0.136   0.043   0.195
    1UNL    H15   67  -0.041  -0.086  -0.264
    1UNL    H16   68   0.003   0.141  -0.419
    1UNL    H17   69   0.086   0.380  -0.386
    1UNL    H18   70   0.069   0.488  -0.161
    1UNL    H19   71  -0.027   0.368   0.032
    1UNL    H20   72  -0.216  -0.212  -0.130
    1UNL    H21   73  -0.136  -0.632  -0.136
    1UNL    H22   74  -0.182  -0.631   0.035
    1UNL    H23   75  -0.308  -0.615  -0.097
    1UNL    H24   76   0.040  -0.593   0.026
    1UNL    H25   77   0.252  -0.490   0.060
    1UNL    H26   78   0.079  -0.003  -0.047
    1UNL    H27   79   0.114   0.351   0.208
    1UNL    H28   80   0.170   0.209   0.294
    1UNL    H29   81   0.291   0.326   0.246
    1UNL    H30   82   0.236   0.093  -0.186
    1UNL    H31   83   0.304   0.231  -0.121
    1UNL    H32   84   0.403   0.158  -0.351
    1UNL    H33   85   0.647   0.173  -0.277
    1UNL    H34   86   0.544   0.282  -0.203
    1UNL    H35   87   0.707   0.111  -0.043
    1UNL    H36   88   0.568   0.216   0.137
    1UNL    H37   89   0.479   0.298   0.017
    1UNL    H38   90   0.670   0.445  -0.037
    1UNL    H39   91   0.664   0.420   0.137
    1UNL    H40   92   0.785   0.335   0.036
    1UNL    H41   93   0.555  -0.044   0.060
    1UNL    H42   94   0.460  -0.276  -0.212
    1UNL    H43   95   0.620  -0.280  -0.138
    1UNL    H44   96   0.442  -0.393  -0.003
    1UNL    H45   97   0.506  -0.252   0.094
    1UNL    H46   98   0.517  -0.051  -0.364
    1UNL    H47   99   0.367  -0.088  -0.296
    1UNL    H48  100  -0.285  -0.292   0.103
    1UNL    H49  101  -0.199  -0.155   0.157
    1UNL    H50  102  -0.481  -0.170   0.094
    1UNL    H51  103  -0.347  -0.052   0.272
    1UNL    H52  104  -0.709   0.015   0.439
    1UNL    H53  105  -0.791  -0.021   0.290
    1UNL    H54  106  -0.753  -0.159   0.417
   0.00000   0.00000   0.00000   0.00000   0.00000   0.00000   0.00000   0.00000   0.00000
Generated with MDTraj, t= 65.0
 106
    1UNL     C1    1  -0.701  -0.137  -0.078
    1UNL     C2    2  -0.562  -0.147  -0.136
    1UNL     C3    3  -0.445  -0.063  -0.063
    1UNL     C4    4  -0.480   0.088  -0.060
    1UNL     N1    5  -0.376   0.178  -0.011
    1UNL     C5    6  -0.408   0.322  -0.016
    1UNL     C6    7  -0.328   0.133   0.128
    1UNL     C7    8  -0.171   0.131   0.129
    1UNL     C8    9  -0.123   0.087  -0.009
    1UNL     C9   10  -0.140  -0.032  -0.082
    1UNL     N2   11  -0.102  -0.012  -0.213
    1UNL    C10   12  -0.057   0.123  -0.224
    1UNL    C11   13   0.014   0.186  -0.324
    1UNL    C12   14   0.073   0.305  -0.296
    1UNL    C13   15   0.067   0.368  -0.168
    1UNL    C14   16  -0.009   0.308  -0.074
    1UNL    C15   17  -0.068   0.182  -0.103
    1UNL    C16   18  -0.177  -0.174  -0.043
    1UNL    C17   19  -0.053  -0.269  -0.035
    1UNL    C18   20  -0.068  -0.408  -0.031
    1UNL     O1   21  -0.197  -0.462  -0.042
    1UNL    C19   22  -0.197  -0.589  -0.091
    1UNL    C20   23   0.046  -0.487  -0.011
    1UNL    C21   24   0.172  -0.442   0.010
    1UNL    C22   25   0.185  -0.299   0.000
    1UNL    C23   26   0.308  -0.218   0.007
    1UNL    C24   27   0.260  -0.087   0.001
    1UNL     N3   28   0.121  -0.087  -0.022
    1UNL    C25   29   0.076  -0.217  -0.023
    1UNL    C26   30   0.344   0.045  -0.003
    1UNL    C27   31   0.319   0.136   0.121
    1UNL     O2   32   0.404   0.108   0.202
    1UNL     O3   33   0.213   0.216   0.115
    1UNL    C28   34   0.201   0.293   0.230
    1UNL    C29   35   0.301   0.110  -0.142
    1UNL    C30   36   0.419   0.102  -0.248
    1UNL    C31   37   0.527   0.202  -0.188
    1UNL    C32   38   0.586   0.145  -0.057
    1UNL    C33   39   0.599   0.253   0.053
    1UNL    C34   40   0.673   0.383   0.007
    1UNL    C35   41   0.500   0.017  -0.020
    1UNL     N4   42   0.529  -0.087  -0.119
    1UNL    C36   43   0.542  -0.229  -0.074
    1UNL    C37   44   0.449  -0.267   0.038
    1UNL    C38   45   0.474  -0.048  -0.256
    1UNL    C39   46  -0.254  -0.186   0.088
    1UNL    C40   47  -0.391  -0.111   0.084
    1UNL    C41   48  -0.387   0.001   0.187
    1UNL    C42   49  -0.522   0.032   0.257
    1UNL     O4   50  -0.578   0.137   0.266
    1UNL     O5   51  -0.578  -0.082   0.301
    1UNL    C43   52  -0.698  -0.072   0.386
    1UNL     H1   53  -0.768  -0.177  -0.153
    1UNL     H2   54  -0.720  -0.028  -0.056
    1UNL     H3   55  -0.704  -0.189   0.014
    1UNL     H4   56  -0.578  -0.115  -0.237
    1UNL     H5   57  -0.522  -0.251  -0.130
    1UNL     H6   58  -0.348  -0.063  -0.119
    1UNL     H7   59  -0.511   0.110  -0.163
    1UNL     H8   60  -0.566   0.100  -0.000
    1UNL     H9   61  -0.382   0.362  -0.120
    1UNL    H10   62  -0.351   0.382   0.061
    1UNL    H11   63  -0.512   0.337   0.013
    1UNL    H12   64  -0.352   0.214   0.199
    1UNL    H13   65  -0.107   0.222   0.149
    1UNL    H14   66  -0.144   0.052   0.199
    1UNL    H15   67  -0.103  -0.080  -0.292
    1UNL    H16   68   0.034   0.142  -0.416
    1UNL    H17   69   0.138   0.348  -0.371
    1UNL    H18   70   0.130   0.456  -0.167
    1UNL    H19   71  -0.021   0.334   0.029
    1UNL    H20   72  -0.232  -0.223  -0.129
    1UNL    H21   73  -0.134  -0.606  -0.180
    1UNL    H22   74  -0.163  -0.654  -0.014
    1UNL    H23   75  -0.305  -0.615  -0.124
    1UNL    H24   76   0.039  -0.595  -0.007
    1UNL    H25   77   0.262  -0.510   0.019
    1UNL    H26   78   0.074   0.003   0.001
    1UNL    H27   79   0.233   0.393   0.207
    1UNL    H28   80   0.100   0.299   0.270
    1UNL    H29   81   0.272   0.256   0.307
    1UNL    H30   82   0.210   0.072  -0.171
    1UNL    H31   83   0.276   0.217  -0.131
    1UNL    H32   84   0.371   0.138  -0.349
    1UNL    H33   85   0.611   0.223  -0.259
    1UNL    H34   86   0.483   0.299  -0.176
    1UNL    H35   87   0.689   0.104  -0.079
    1UNL    H36   88   0.639   0.213   0.141
    1UNL    H37   89   0.494   0.283   0.078
    1UNL    H38   90   0.641   0.427  -0.091
    1UNL    H39   91   0.679   0.459   0.079
    1UNL    H40   92   0.779   0.355  -0.021
    1UNL    H41   93   0.536  -0.016   0.072
    1UNL    H42   94   0.536  -0.292  -0.167
    1UNL    H43   95   0.646  -0.242  -0.043
    1UNL    H44   96   0.454  -0.380   0.062
    1UNL    H45   97   0.488  -0.222   0.128
    1UNL    H46   98   0.554  -0.056  -0.327
    1UNL    H47   99   0.395  -0.116  -0.286
    1UNL    H48  100  -0.264  -0.293   0.102
    1UNL    H49  101  -0.197  -0.147   0.174
    1UNL    H50  102  -0.472  -0.172   0.111
    1UNL    H51  103  -0.328  -0.048   0.266
    1UNL    H52  104  -0.668  -0.032   0.484
    1UNL    H53  105  -0.766  -0.001   0.346
    1UNL    H54  106  -0.737  -0.178   0.406
   0.00000   0.00000   0.00000   0.00000   0.00000   0.00000   0.00000   0.00000   0.00000
Generated with MDTraj, t= 66.0
 106
    1UNL     C1    1  -0.704  -0.129  -0.045
    1UNL     C2    2  -0.571  -0.149  -0.114
    1UNL     C3    3  -0.457  -0.056  -0.054
    1UNL     C4    4  -0.497   0.089  -0.029
    1UNL     N1    5  -0.388   0.177   0.011
    1UNL     C5    6  -0.418   0.325   0.012
    1UNL     C6    7  -0.317   0.129   0.133
    1UNL     C7    8  -0.168   0.111   0.115
    1UNL     C8    9  -0.119   0.076  -0.028
    1UNL     C9   10  -0.126  -0.043  -0.105
    1UNL     N2   11  -0.061  -0.023  -0.224
    1UNL    C10   12  -0.016   0.105  -0.236
    1UNL    C11   13   0.058   0.173  -0.331
    1UNL    C12   14   0.093   0.307  -0.310
    1UNL    C13   15   0.043   0.369  -0.196
    1UNL    C14   16  -0.021   0.306  -0.096
    1UNL    C15   17  -0.055   0.170  -0.113
    1UNL    C16   18  -0.171  -0.174  -0.056
    1UNL    C17   19  -0.046  -0.260  -0.026
    1UNL    C18   20  -0.061  -0.398  -0.051
    1UNL     O1   21  -0.192  -0.442  -0.062
    1UNL    C19   22  -0.208  -0.575  -0.104
    1UNL    C20   23   0.052  -0.488  -0.046
    1UNL    C21   24   0.178  -0.439  -0.015
    1UNL    C22   25   0.195  -0.303   0.009
    1UNL    C23   26   0.312  -0.219   0.026
    1UNL    C24   27   0.269  -0.084   0.022
    1UNL     N3   28   0.126  -0.081   0.021
    1UNL    C25   29   0.083  -0.211   0.006
    1UNL    C26   30   0.344   0.051   0.007
    1UNL    C27   31   0.314   0.135   0.125
    1UNL     O2   32   0.371   0.115   0.231
    1UNL     O3   33   0.208   0.224   0.100
    1UNL    C28   34   0.161   0.297   0.216
    1UNL    C29   35   0.297   0.110  -0.130
    1UNL    C30   36   0.409   0.099  -0.240
    1UNL    C31   37   0.526   0.186  -0.199
    1UNL    C32   38   0.578   0.150  -0.055
    1UNL    C33   39   0.576   0.272   0.041
    1UNL    C34   40   0.687   0.368   0.003
    1UNL    C35   41   0.501   0.019  -0.009
    1UNL     N4   42   0.532  -0.085  -0.118
    1UNL    C36   43   0.538  -0.232  -0.076
    1UNL    C37   44   0.452  -0.263   0.049
    1UNL    C38   45   0.465  -0.041  -0.253
    1UNL    C39   46  -0.285  -0.217   0.050
    1UNL    C40   47  -0.404  -0.121   0.082
    1UNL    C41   48  -0.382  -0.002   0.185
    1UNL    C42   49  -0.511   0.021   0.261
    1UNL     O4   50  -0.535   0.135   0.289
    1UNL     O5   51  -0.588  -0.083   0.305
    1UNL    C43   52  -0.702  -0.038   0.375
    1UNL     H1   53  -0.775  -0.205  -0.064
    1UNL     H2   54  -0.758  -0.039  -0.081
    1UNL     H3   55  -0.705  -0.113   0.064
    1UNL     H4   56  -0.569  -0.116  -0.216
    1UNL     H5   57  -0.539  -0.254  -0.103
    1UNL     H6   58  -0.369  -0.050  -0.128
    1UNL     H7   59  -0.545   0.129  -0.120
    1UNL     H8   60  -0.576   0.083   0.042
    1UNL     H9   61  -0.497   0.339  -0.070
    1UNL    H10   62  -0.336   0.386  -0.019
    1UNL    H11   63  -0.452   0.360   0.114
    1UNL    H12   64  -0.329   0.210   0.205
    1UNL    H13   65  -0.118   0.212   0.132
    1UNL    H14   66  -0.112   0.038   0.173
    1UNL    H15   67  -0.052  -0.098  -0.295
    1UNL    H16   68   0.088   0.124  -0.428
    1UNL    H17   69   0.128   0.364  -0.394
    1UNL    H18   70   0.062   0.473  -0.177
    1UNL    H19   71  -0.053   0.367  -0.013
    1UNL    H20   72  -0.197  -0.233  -0.149
    1UNL    H21   73  -0.147  -0.591  -0.188
    1UNL    H22   74  -0.170  -0.637  -0.026
    1UNL    H23   75  -0.315  -0.596  -0.139
    1UNL    H24   76   0.037  -0.596  -0.056
    1UNL    H25   77   0.261  -0.500  -0.016
    1UNL    H26   78   0.081  -0.003  -0.027
    1UNL    H27   79   0.235   0.284   0.295
    1UNL    H28   80   0.144   0.402   0.197
    1UNL    H29   81   0.071   0.254   0.268
    1UNL    H30   82   0.213   0.060  -0.163
    1UNL    H31   83   0.267   0.216  -0.119
    1UNL    H32   84   0.363   0.128  -0.346
    1UNL    H33   85   0.601   0.178  -0.279
    1UNL    H34   86   0.496   0.295  -0.199
    1UNL    H35   87   0.684   0.112  -0.074
    1UNL    H36   88   0.583   0.247   0.142
    1UNL    H37   89   0.479   0.327   0.030
    1UNL    H38   90   0.691   0.382  -0.108
    1UNL    H39   91   0.692   0.459   0.058
    1UNL    H40   92   0.782   0.310   0.019
    1UNL    H41   93   0.545  -0.022   0.075
    1UNL    H42   94   0.496  -0.289  -0.165
    1UNL    H43   95   0.643  -0.260  -0.077
    1UNL    H44   96   0.460  -0.373   0.079
    1UNL    H45   97   0.480  -0.214   0.142
    1UNL    H46   98   0.532  -0.043  -0.337
    1UNL    H47   99   0.380  -0.109  -0.263
    1UNL    H48  100  -0.323  -0.313   0.020
    1UNL    H49  101  -0.231  -0.226   0.145
    1UNL    H50  102  -0.488  -0.175   0.115
    1UNL    H51  103  -0.316  -0.054   0.255
    1UNL    H52  104  -0.676   0.045   0.441
    1UNL    H53  105  -0.768   0.002   0.302
    1UNL    H54  106  -0.745  -0.121   0.439
   0.00000   0.00000   0.00000   0.00000   0.00000   0.00000   0.00000   0.00000   0.00000
Generated with MDTraj, t= 67.0
 106
    1UNL     C1    1  -0.682  -0.154   0.007
    1UNL     C2    2  -0.571  -0.124  -0.096
    1UNL     C3    3  -0.450  -0.046  -0.041
    1UNL     C4    4  -0.488   0.103  -0.026
    1UNL     N1    5  -0.378   0.189   0.024
    1UNL     C5    6  -0.414   0.336   0.034
    1UNL     C6    7  -0.308   0.128   0.141
    1UNL     C7    8  -0.157   0.124   0.104
    1UNL     C8    9  -0.124   0.087  -0.040
    1UNL     C9   10  -0.126  -0.036  -0.102
    1UNL     N2   11  -0.079  -0.027  -0.224
    1UNL    C10   12  -0.028   0.106  -0.247
    1UNL    C11   13   0.049   0.166  -0.349
    1UNL    C12   14   0.079   0.300  -0.328
    1UNL    C13   15   0.031   0.371  -0.222
    1UNL    C14   16  -0.047   0.317  -0.124
    1UNL    C15   17  -0.064   0.179  -0.134
    1UNL    C16   18  -0.167  -0.177  -0.060
    1UNL    C17   19  -0.044  -0.269  -0.046
    1UNL    C18   20  -0.051  -0.406  -0.066
    1UNL     O1   21  -0.171  -0.458  -0.131
    1UNL    C19   22  -0.175  -0.600  -0.116
    1UNL    C20   23   0.057  -0.492  -0.033
    1UNL    C21   24   0.178  -0.447   0.011
    1UNL    C22   25   0.188  -0.308   0.023
    1UNL    C23   26   0.305  -0.221   0.032
    1UNL    C24   27   0.262  -0.096   0.014
    1UNL     N3   28   0.122  -0.084   0.004
    1UNL    C25   29   0.080  -0.218  -0.005
    1UNL    C26   30   0.342   0.037   0.009
    1UNL    C27   31   0.299   0.138   0.121
    1UNL     O2   32   0.372   0.135   0.217
    1UNL     O3   33   0.194   0.223   0.105
    1UNL    C28   34   0.171   0.310   0.214
    1UNL    C29   35   0.306   0.108  -0.131
    1UNL    C30   36   0.411   0.093  -0.242
    1UNL    C31   37   0.536   0.180  -0.188
    1UNL    C32   38   0.573   0.143  -0.044
    1UNL    C33   39   0.558   0.256   0.056
    1UNL    C34   40   0.659   0.365   0.040
    1UNL    C35   41   0.502   0.011   0.002
    1UNL     N4   42   0.527  -0.087  -0.110
    1UNL    C36   43   0.530  -0.233  -0.079
    1UNL    C37   44   0.448  -0.263   0.047
    1UNL    C38   45   0.449  -0.054  -0.241
    1UNL    C39   46  -0.254  -0.193   0.064
    1UNL    C40   47  -0.382  -0.112   0.082
    1UNL    C41   48  -0.372   0.001   0.194
    1UNL    C42   49  -0.507   0.028   0.264
    1UNL     O4   50  -0.534   0.141   0.305
    1UNL     O5   51  -0.596  -0.076   0.284
    1UNL    C43   52  -0.702  -0.035   0.356
    1UNL     H1   53  -0.772  -0.177  -0.043
    1UNL     H2   54  -0.707  -0.071   0.071
    1UNL     H3   55  -0.654  -0.238   0.078
    1UNL     H4   56  -0.615  -0.058  -0.169
    1UNL     H5   57  -0.527  -0.218  -0.137
    1UNL     H6   58  -0.378  -0.046  -0.132
    1UNL     H7   59  -0.530   0.136  -0.123
    1UNL     H8   60  -0.574   0.114   0.038
    1UNL     H9   61  -0.404   0.383  -0.066
    1UNL    H10   62  -0.351   0.386   0.103
    1UNL    H11   63  -0.519   0.347   0.085
    1UNL    H12   64  -0.317   0.201   0.222
    1UNL    H13   65  -0.099   0.221   0.124
    1UNL    H14   66  -0.108   0.056   0.176
    1UNL    H15   67  -0.055  -0.105  -0.287
    1UNL    H16   68   0.061   0.132  -0.447
    1UNL    H17   69   0.137   0.355  -0.406
    1UNL    H18   70   0.035   0.480  -0.222
    1UNL    H19   71  -0.079   0.366  -0.034
    1UNL    H20   72  -0.234  -0.217  -0.143
    1UNL    H21   73  -0.106  -0.638  -0.179
    1UNL    H22   74  -0.152  -0.623  -0.013
    1UNL    H23   75  -0.272  -0.635  -0.152
    1UNL    H24   76   0.044  -0.596  -0.042
    1UNL    H25   77   0.264  -0.517   0.014
    1UNL    H26   78   0.064  -0.007   0.027
    1UNL    H27   79   0.071   0.288   0.253
    1UNL    H28   80   0.251   0.317   0.287
    1UNL    H29   81   0.154   0.414   0.178
    1UNL    H30   82   0.215   0.054  -0.166
    1UNL    H31   83   0.283   0.213  -0.117
    1UNL    H32   84   0.377   0.126  -0.353
    1UNL    H33   85   0.624   0.181  -0.250
    1UNL    H34   86   0.504   0.294  -0.191
    1UNL    H35   87   0.682   0.108  -0.049
    1UNL    H36   88   0.561   0.214   0.153
    1UNL    H37   89   0.455   0.298   0.048
    1UNL    H38   90   0.648   0.427  -0.049
    1UNL    H39   91   0.668   0.422   0.132
    1UNL    H40   92   0.759   0.318   0.022
    1UNL    H41   93   0.538  -0.014   0.097
    1UNL    H42   94   0.497  -0.284  -0.176
    1UNL    H43   95   0.631  -0.268  -0.064
    1UNL    H44   96   0.446  -0.374   0.067
    1UNL    H45   97   0.494  -0.218   0.135
    1UNL    H46   98   0.521  -0.079  -0.317
    1UNL    H47   99   0.359  -0.118  -0.238
    1UNL    H48  100  -0.278  -0.297   0.066
    1UNL    H49  101  -0.181  -0.175   0.145
    1UNL    H50  102  -0.459  -0.177   0.111
    1UNL    H51  103  -0.310  -0.044   0.274
    1UNL    H52  104  -0.668   0.006   0.450
    1UNL    H53  105  -0.743   0.043   0.299
    1UNL    H54  106  -0.772  -0.120   0.377
   0.00000   0.00000   0.00000   0.00000   0.00000   0.00000   0.00000   0.00000   0.00000
Generated with MDTraj, t= 68.0
 106
    1UNL     C1    1  -0.670  -0.168  -0.011
    1UNL     C2    2  -0.543  -0.148  -0.100
    1UNL     C3    3  -0.434  -0.053  -0.030
    1UNL     C4    4  -0.483   0.093  -0.019
    1UNL     N1    5  -0.372   0.189   0.019
    1UNL     C5    6  -0.416   0.327   0.041
    1UNL     C6    7  -0.294   0.138   0.135
    1UNL     C7    8  -0.144   0.125   0.095
    1UNL     C8    9  -0.115   0.068  -0.039
    1UNL     C9   10  -0.140  -0.054  -0.110
    1UNL     N2   11  -0.099  -0.023  -0.245
    1UNL    C10   12  -0.066   0.109  -0.265
    1UNL    C11   13  -0.018   0.179  -0.371
    1UNL    C12   14   0.028   0.307  -0.351
    1UNL    C13   15   0.017   0.366  -0.229
    1UNL    C14   16  -0.038   0.301  -0.124
    1UNL    C15   17  -0.075   0.168  -0.136
    1UNL    C16   18  -0.173  -0.187  -0.054
    1UNL    C17   19  -0.055  -0.270  -0.051
    1UNL    C18   20  -0.066  -0.402  -0.073
    1UNL     O1   21  -0.194  -0.458  -0.104
    1UNL    C19   22  -0.181  -0.597  -0.144
    1UNL    C20   23   0.043  -0.491  -0.047
    1UNL    C21   24   0.170  -0.451  -0.001
    1UNL    C22   25   0.185  -0.311   0.012
    1UNL    C23   26   0.292  -0.220   0.040
    1UNL    C24   27   0.255  -0.082   0.021
    1UNL     N3   28   0.121  -0.087  -0.010
    1UNL    C25   29   0.077  -0.222  -0.016
    1UNL    C26   30   0.340   0.038   0.001
    1UNL    C27   31   0.300   0.127   0.119
    1UNL     O2   32   0.364   0.112   0.222
    1UNL     O3   33   0.197   0.219   0.100
    1UNL    C28   34   0.171   0.293   0.217
    1UNL    C29   35   0.301   0.102  -0.147
    1UNL    C30   36   0.425   0.096  -0.232
    1UNL    C31   37   0.526   0.197  -0.168
    1UNL    C32   38   0.583   0.147  -0.030
    1UNL    C33   39   0.568   0.256   0.078
    1UNL    C34   40   0.660   0.378   0.044
    1UNL    C35   41   0.501   0.021   0.011
    1UNL     N4   42   0.538  -0.089  -0.089
    1UNL    C36   43   0.519  -0.232  -0.056
    1UNL    C37   44   0.431  -0.254   0.069
    1UNL    C38   45   0.486  -0.048  -0.230
    1UNL    C39   46  -0.234  -0.176   0.086
    1UNL    C40   47  -0.367  -0.097   0.103
    1UNL    C41   48  -0.345   0.019   0.212
    1UNL    C42   49  -0.484   0.043   0.275
    1UNL     O4   50  -0.511   0.160   0.310
    1UNL     O5   51  -0.566  -0.064   0.275
    1UNL    C43   52  -0.688  -0.037   0.325
    1UNL     H1   53  -0.745  -0.221  -0.063
    1UNL     H2   54  -0.711  -0.076   0.015
    1UNL     H3   55  -0.637  -0.220   0.087
    1UNL     H4   56  -0.577  -0.093  -0.187
    1UNL     H5   57  -0.492  -0.245  -0.114
    1UNL     H6   58  -0.349  -0.045  -0.108
    1UNL     H7   59  -0.537   0.134  -0.106
    1UNL     H8   60  -0.563   0.095   0.054
    1UNL     H9   61  -0.479   0.364  -0.039
    1UNL    H10   62  -0.323   0.388   0.045
    1UNL    H11   63  -0.458   0.332   0.148
    1UNL    H12   64  -0.308   0.219   0.208
    1UNL    H13   65  -0.104   0.231   0.107
    1UNL    H14   66  -0.083   0.071   0.172
    1UNL    H15   67  -0.105  -0.093  -0.320
    1UNL    H16   68  -0.010   0.123  -0.466
    1UNL    H17   69   0.068   0.363  -0.431
    1UNL    H18   70   0.081   0.450  -0.215
    1UNL    H19   71  -0.033   0.344  -0.026
    1UNL    H20   72  -0.252  -0.231  -0.121
    1UNL    H21   73  -0.107  -0.595  -0.216
    1UNL    H22   74  -0.152  -0.657  -0.062
    1UNL    H23   75  -0.269  -0.623  -0.197
    1UNL    H24   76   0.028  -0.600  -0.051
    1UNL    H25   77   0.243  -0.522   0.033
    1UNL    H26   78   0.077  -0.019  -0.064
    1UNL    H27   79   0.200   0.396   0.188
    1UNL    H28   80   0.066   0.289   0.250
    1UNL    H29   81   0.229   0.265   0.307
    1UNL    H30   82   0.219   0.038  -0.196
    1UNL    H31   83   0.271   0.205  -0.136
    1UNL    H32   84   0.399   0.128  -0.345
    1UNL    H33   85   0.607   0.211  -0.238
    1UNL    H34   86   0.484   0.305  -0.150
    1UNL    H35   87   0.694   0.118  -0.042
    1UNL    H36   88   0.580   0.215   0.176
    1UNL    H37   89   0.462   0.284   0.077
    1UNL    H38   90   0.671   0.392  -0.062
    1UNL    H39   91   0.627   0.471   0.099
    1UNL    H40   92   0.764   0.358   0.075
    1UNL    H41   93   0.531  -0.010   0.105
    1UNL    H42   94   0.473  -0.293  -0.141
    1UNL    H43   95   0.621  -0.266  -0.048
    1UNL    H44   96   0.439  -0.360   0.099
    1UNL    H45   97   0.471  -0.193   0.154
    1UNL    H46   98   0.556  -0.068  -0.309
    1UNL    H47   99   0.395  -0.111  -0.241
    1UNL    H48  100  -0.249  -0.276   0.121
    1UNL    H49  101  -0.163  -0.132   0.159
    1UNL    H50  102  -0.436  -0.166   0.144
    1UNL    H51  103  -0.278  -0.018   0.291
    1UNL    H52  104  -0.685  -0.036   0.434
    1UNL    H53  105  -0.705   0.063   0.295
    1UNL    H54  106  -0.765  -0.110   0.292
   0.00000   0.00000   0.00000   0.00000   0.00000   0.00000   0.00000   0.00000   0.00000
Generated with MDTraj, t= 69.0
 106
    1UNL     C1    1  -0.663  -0.150  -0.039
    1UNL     C2    2  -0.526  -0.165  -0.100
    1UNL     C3    3  -0.427  -0.059  -0.040
    1UNL     C4    4  -0.485   0.084  -0.020
    1UNL     N1    5  -0.378   0.175   0.035
    1UNL     C5    6  -0.409   0.314   0.040
    1UNL     C6    7  -0.291   0.121   0.140
    1UNL     C7    8  -0.141   0.116   0.091
    1UNL     C8    9  -0.118   0.089  -0.048
    1UNL     C9   10  -0.130  -0.035  -0.100
    1UNL     N2   11  -0.116  -0.030  -0.241
    1UNL    C10   12  -0.095   0.105  -0.276
    1UNL    C11   13  -0.067   0.173  -0.398
    1UNL    C12   14  -0.015   0.293  -0.392
    1UNL    C13   15  -0.001   0.365  -0.268
    1UNL    C14   16  -0.034   0.310  -0.150
    1UNL    C15   17  -0.075   0.173  -0.156
    1UNL    C16   18  -0.159  -0.178  -0.056
    1UNL    C17   19  -0.042  -0.264  -0.054
    1UNL    C18   20  -0.061  -0.405  -0.052
    1UNL     O1   21  -0.201  -0.440  -0.068
    1UNL    C19   22  -0.209  -0.553  -0.158
    1UNL    C20   23   0.052  -0.493  -0.042
    1UNL    C21   24   0.179  -0.445  -0.014
    1UNL    C22   25   0.194  -0.305  -0.007
    1UNL    C23   26   0.310  -0.229   0.018
    1UNL    C24   27   0.268  -0.100   0.018
    1UNL     N3   28   0.134  -0.091  -0.006
    1UNL    C25   29   0.089  -0.217  -0.027
    1UNL    C26   30   0.338   0.035   0.012
    1UNL    C27   31   0.285   0.123   0.130
    1UNL     O2   32   0.321   0.092   0.241
    1UNL     O3   33   0.202   0.229   0.098
    1UNL    C28   34   0.160   0.308   0.206
    1UNL    C29   35   0.317   0.111  -0.130
    1UNL    C30   36   0.444   0.103  -0.221
    1UNL    C31   37   0.559   0.189  -0.164
    1UNL    C32   38   0.585   0.147  -0.015
    1UNL    C33   39   0.565   0.260   0.088
    1UNL    C34   40   0.667   0.371   0.065
    1UNL    C35   41   0.497   0.020   0.020
    1UNL     N4   42   0.546  -0.080  -0.082
    1UNL    C36   43   0.563  -0.225  -0.055
    1UNL    C37   44   0.449  -0.284   0.042
    1UNL    C38   45   0.483  -0.046  -0.213
    1UNL    C39   46  -0.244  -0.206   0.073
    1UNL    C40   47  -0.375  -0.118   0.099
    1UNL    C41   48  -0.358   0.001   0.208
    1UNL    C42   49  -0.484   0.040   0.280
    1UNL     O4   50  -0.485   0.154   0.331
    1UNL     O5   51  -0.585  -0.051   0.297
    1UNL    C43   52  -0.693   0.011   0.357
    1UNL     H1   53  -0.730  -0.227  -0.069
    1UNL     H2   54  -0.722  -0.066  -0.064
    1UNL     H3   55  -0.660  -0.145   0.074
    1UNL     H4   56  -0.520  -0.140  -0.207
    1UNL     H5   57  -0.491  -0.262  -0.064
    1UNL     H6   58  -0.346  -0.047  -0.119
    1UNL     H7   59  -0.514   0.126  -0.113
    1UNL     H8   60  -0.575   0.088   0.042
    1UNL     H9   61  -0.421   0.355  -0.060
    1UNL    H10   62  -0.323   0.372   0.093
    1UNL    H11   63  -0.493   0.325   0.109
    1UNL    H12   64  -0.299   0.194   0.224
    1UNL    H13   65  -0.093   0.215   0.122
    1UNL    H14   66  -0.078   0.044   0.155
    1UNL    H15   67  -0.126  -0.110  -0.304
    1UNL    H16   68  -0.081   0.128  -0.492
    1UNL    H17   69   0.012   0.344  -0.484
    1UNL    H18   70   0.042   0.466  -0.260
    1UNL    H19   71  -0.027   0.360  -0.056
    1UNL    H20   72  -0.225  -0.214  -0.138
    1UNL    H21   73  -0.145  -0.527  -0.238
    1UNL    H22   74  -0.174  -0.638  -0.108
    1UNL    H23   75  -0.303  -0.553  -0.198
    1UNL    H24   76   0.032  -0.597  -0.043
    1UNL    H25   77   0.257  -0.513   0.006
    1UNL    H26   78   0.086   0.001   0.002
    1UNL    H27   79   0.191   0.251   0.295
    1UNL    H28   80   0.206   0.409   0.209
    1UNL    H29   81   0.053   0.326   0.206
    1UNL    H30   82   0.226   0.063  -0.185
    1UNL    H31   83   0.298   0.212  -0.099
    1UNL    H32   84   0.409   0.130  -0.331
    1UNL    H33   85   0.654   0.194  -0.220
    1UNL    H34   86   0.524   0.295  -0.156
    1UNL    H35   87   0.698   0.129  -0.002
    1UNL    H36   88   0.575   0.221   0.189
    1UNL    H37   89   0.465   0.300   0.083
    1UNL    H38   90   0.637   0.432  -0.016
    1UNL    H39   91   0.673   0.425   0.167
    1UNL    H40   92   0.766   0.337   0.042
    1UNL    H41   93   0.519  -0.017   0.114
    1UNL    H42   94   0.569  -0.271  -0.158
    1UNL    H43   95   0.656  -0.248  -0.006
    1UNL    H44   96   0.459  -0.394   0.049
    1UNL    H45   97   0.487  -0.235   0.136
    1UNL    H46   98   0.549  -0.062  -0.297
    1UNL    H47   99   0.394  -0.111  -0.221
    1UNL    H48  100  -0.277  -0.308   0.070
    1UNL    H49  101  -0.177  -0.197   0.161
    1UNL    H50  102  -0.448  -0.187   0.132
    1UNL    H51  103  -0.292  -0.027   0.293
    1UNL    H52  104  -0.659   0.088   0.428
    1UNL    H53  105  -0.746   0.059   0.278
    1UNL    H54  106  -0.757  -0.060   0.416
   0.00000   0.00000   0.00000   0.00000   0.00000   0.00000   0.00000   0.00000   0.00000
Generated with MDTraj, t= 70.0
 106
    1UNL     C1    1  -0.678  -0.138  -0.015
    1UNL     C2    2  -0.549  -0.136  -0.100
    1UNL     C3    3  -0.442  -0.047  -0.038
    1UNL     C4    4  -0.489   0.095  -0.028
    1UNL     N1    5  -0.381   0.190   0.014
    1UNL     C5    6  -0.425   0.335   0.016
    1UNL     C6    7  -0.287   0.147   0.129
    1UNL     C7    8  -0.139   0.122   0.087
    1UNL     C8    9  -0.125   0.064  -0.046
    1UNL     C9   10  -0.145  -0.060  -0.109
    1UNL     N2   11  -0.121  -0.043  -0.246
    1UNL    C10   12  -0.095   0.084  -0.271
    1UNL    C11   13  -0.057   0.153  -0.394
    1UNL    C12   14  -0.048   0.289  -0.400
    1UNL    C13   15  -0.059   0.358  -0.276
    1UNL    C14   16  -0.096   0.294  -0.156
    1UNL    C15   17  -0.097   0.156  -0.148
    1UNL    C16   18  -0.170  -0.195  -0.053
    1UNL    C17   19  -0.043  -0.276  -0.054
    1UNL    C18   20  -0.057  -0.415  -0.052
    1UNL     O1   21  -0.182  -0.476  -0.053
    1UNL    C19   22  -0.199  -0.560  -0.166
    1UNL    C20   23   0.061  -0.500  -0.046
    1UNL    C21   24   0.189  -0.449  -0.029
    1UNL    C22   25   0.201  -0.309  -0.015
    1UNL    C23   26   0.305  -0.225   0.014
    1UNL    C24   27   0.267  -0.096   0.006
    1UNL     N3   28   0.136  -0.094  -0.016
    1UNL    C25   29   0.085  -0.220  -0.031
    1UNL    C26   30   0.347   0.036   0.005
    1UNL    C27   31   0.303   0.118   0.127
    1UNL     O2   32   0.336   0.067   0.232
    1UNL     O3   33   0.233   0.235   0.098
    1UNL    C28   34   0.191   0.302   0.210
    1UNL    C29   35   0.331   0.117  -0.134
    1UNL    C30   36   0.464   0.115  -0.217
    1UNL    C31   37   0.570   0.198  -0.144
    1UNL    C32   38   0.592   0.152   0.008
    1UNL    C33   39   0.545   0.257   0.114
    1UNL    C34   40   0.649   0.363   0.112
    1UNL    C35   41   0.509   0.018   0.023
    1UNL     N4   42   0.558  -0.075  -0.083
    1UNL    C36   43   0.553  -0.219  -0.055
    1UNL    C37   44   0.442  -0.273   0.040
    1UNL    C38   45   0.521  -0.033  -0.224
    1UNL    C39   46  -0.257  -0.195   0.079
    1UNL    C40   47  -0.382  -0.096   0.097
    1UNL    C41   48  -0.352   0.023   0.199
    1UNL    C42   49  -0.473   0.058   0.282
    1UNL     O4   50  -0.475   0.159   0.352
    1UNL     O5   51  -0.573  -0.030   0.270
    1UNL    C43   52  -0.670  -0.005   0.371
    1UNL     H1   53  -0.765  -0.173  -0.070
    1UNL     H2   54  -0.713  -0.048   0.033
    1UNL     H3   55  -0.652  -0.197   0.071
    1UNL     H4   56  -0.584  -0.093  -0.196
    1UNL     H5   57  -0.498  -0.233  -0.100
    1UNL     H6   58  -0.361  -0.057  -0.112
    1UNL     H7   59  -0.535   0.127  -0.117
    1UNL     H8   60  -0.570   0.097   0.048
    1UNL     H9   61  -0.508   0.356  -0.055
    1UNL    H10   62  -0.340   0.406  -0.019
    1UNL    H11   63  -0.444   0.367   0.117
    1UNL    H12   64  -0.293   0.222   0.212
    1UNL    H13   65  -0.079   0.217   0.103
    1UNL    H14   66  -0.091   0.053   0.166
    1UNL    H15   67  -0.122  -0.114  -0.318
    1UNL    H16   68  -0.053   0.095  -0.486
    1UNL    H17   69  -0.028   0.355  -0.483
    1UNL    H18   70  -0.059   0.465  -0.278
    1UNL    H19   71  -0.111   0.352  -0.066
    1UNL    H20   72  -0.234  -0.256  -0.117
    1UNL    H21   73  -0.156  -0.510  -0.252
    1UNL    H22   74  -0.148  -0.650  -0.142
    1UNL    H23   75  -0.299  -0.562  -0.183
    1UNL    H24   76   0.042  -0.606  -0.049
    1UNL    H25   77   0.261  -0.526   0.008
    1UNL    H26   78   0.085  -0.013  -0.062
    1UNL    H27   79   0.082   0.300   0.217
    1UNL    H28   80   0.241   0.257   0.299
    1UNL    H29   81   0.233   0.401   0.207
    1UNL    H30   82   0.251   0.054  -0.186
    1UNL    H31   83   0.298   0.218  -0.113
    1UNL    H32   84   0.440   0.155  -0.321
    1UNL    H33   85   0.669   0.206  -0.195
    1UNL    H34   86   0.534   0.296  -0.136
    1UNL    H35   87   0.705   0.141   0.029
    1UNL    H36   88   0.531   0.208   0.212
    1UNL    H37   89   0.453   0.299   0.086
    1UNL    H38   90   0.664   0.399   0.013
    1UNL    H39   91   0.613   0.447   0.181
    1UNL    H40   92   0.746   0.340   0.149
    1UNL    H41   93   0.532  -0.034   0.112
    1UNL    H42   94   0.545  -0.278  -0.151
    1UNL    H43   95   0.654  -0.238  -0.022
    1UNL    H44   96   0.446  -0.382   0.031
    1UNL    H45   97   0.468  -0.240   0.146
    1UNL    H46   98   0.606  -0.043  -0.290
    1UNL    H47   99   0.444  -0.095  -0.273
    1UNL    H48  100  -0.297  -0.294   0.088
    1UNL    H49  101  -0.194  -0.183   0.169
    1UNL    H50  102  -0.458  -0.153   0.141
    1UNL    H51  103  -0.274  -0.010   0.270
    1UNL    H52  104  -0.619   0.012   0.469
    1UNL    H53  105  -0.725   0.085   0.346
    1UNL    H54  106  -0.743  -0.088   0.390
   0.00000   0.00000   0.00000   0.00000   0.00000   0.00000   0.00000   0.00000   0.00000
Generated with MDTraj, t= 71.0
 106
    1UNL     C1    1  -0.690  -0.148   0.021
    1UNL     C2    2  -0.567  -0.134  -0.082
    1UNL     C3    3  -0.446  -0.047  -0.043
    1UNL     C4    4  -0.484   0.102  -0.025
    1UNL     N1    5  -0.373   0.190   0.018
    1UNL     C5    6  -0.398   0.338   0.026
    1UNL     C6    7  -0.287   0.141   0.136
    1UNL     C7    8  -0.144   0.123   0.077
    1UNL     C8    9  -0.128   0.077  -0.060
    1UNL     C9   10  -0.133  -0.049  -0.116
    1UNL     N2   11  -0.104  -0.048  -0.251
    1UNL    C10   12  -0.093   0.084  -0.287
    1UNL    C11   13  -0.069   0.144  -0.417
    1UNL    C12   14  -0.067   0.284  -0.420
    1UNL    C13   15  -0.100   0.367  -0.313
    1UNL    C14   16  -0.112   0.305  -0.189
    1UNL    C15   17  -0.103   0.166  -0.174
    1UNL    C16   18  -0.162  -0.182  -0.051
    1UNL    C17   19  -0.048  -0.271  -0.045
    1UNL    C18   20  -0.059  -0.411  -0.040
    1UNL     O1   21  -0.188  -0.464  -0.075
    1UNL    C19   22  -0.178  -0.578  -0.158
    1UNL    C20   23   0.053  -0.501  -0.019
    1UNL    C21   24   0.182  -0.450  -0.001
    1UNL    C22   25   0.191  -0.305  -0.002
    1UNL    C23   26   0.309  -0.228   0.014
    1UNL    C24   27   0.271  -0.097  -0.007
    1UNL     N3   28   0.135  -0.095  -0.016
    1UNL    C25   29   0.082  -0.223  -0.024
    1UNL    C26   30   0.350   0.035  -0.001
    1UNL    C27   31   0.292   0.107   0.115
    1UNL     O2   32   0.318   0.056   0.221
    1UNL     O3   33   0.223   0.224   0.089
    1UNL    C28   34   0.198   0.297   0.211
    1UNL    C29   35   0.339   0.113  -0.141
    1UNL    C30   36   0.472   0.132  -0.213
    1UNL    C31   37   0.568   0.218  -0.122
    1UNL    C32   38   0.588   0.147   0.019
    1UNL    C33   39   0.553   0.229   0.141
    1UNL    C34   40   0.655   0.350   0.159
    1UNL    C35   41   0.504   0.013   0.025
    1UNL     N4   42   0.561  -0.067  -0.085
    1UNL    C36   43   0.549  -0.218  -0.082
    1UNL    C37   44   0.452  -0.284   0.024
    1UNL    C38   45   0.542  -0.009  -0.227
    1UNL    C39   46  -0.235  -0.173   0.080
    1UNL    C40   47  -0.374  -0.098   0.094
    1UNL    C41   48  -0.349   0.013   0.206
    1UNL    C42   49  -0.466   0.046   0.291
    1UNL     O4   50  -0.472   0.152   0.351
    1UNL     O5   51  -0.575  -0.033   0.279
    1UNL    C43   52  -0.678   0.007   0.366
    1UNL     H1   53  -0.763  -0.225  -0.003
    1UNL     H2   54  -0.750  -0.057   0.030
    1UNL     H3   55  -0.643  -0.148   0.112
    1UNL     H4   56  -0.610  -0.077  -0.168
    1UNL     H5   57  -0.539  -0.237  -0.097
    1UNL     H6   58  -0.378  -0.053  -0.128
    1UNL     H7   59  -0.525   0.139  -0.113
    1UNL     H8   60  -0.563   0.103   0.053
    1UNL     H9   61  -0.398   0.379  -0.081
    1UNL    H10   62  -0.316   0.391   0.073
    1UNL    H11   63  -0.486   0.369   0.084
    1UNL    H12   64  -0.284   0.225   0.210
    1UNL    H13   65  -0.095   0.225   0.087
    1UNL    H14   66  -0.078   0.056   0.145
    1UNL    H15   67  -0.115  -0.122  -0.318
    1UNL    H16   68  -0.046   0.075  -0.500
    1UNL    H17   69  -0.066   0.331  -0.516
    1UNL    H18   70  -0.094   0.477  -0.314
    1UNL    H19   71  -0.143   0.368  -0.107
    1UNL    H20   72  -0.229  -0.226  -0.123
    1UNL    H21   73  -0.132  -0.555  -0.258
    1UNL    H22   74  -0.121  -0.646  -0.098
    1UNL    H23   75  -0.275  -0.613  -0.171
    1UNL    H24   76   0.033  -0.608  -0.029
    1UNL    H25   77   0.259  -0.510   0.033
    1UNL    H26   78   0.079  -0.011  -0.004
    1UNL    H27   79   0.218   0.404   0.209
    1UNL    H28   80   0.095   0.274   0.249
    1UNL    H29   81   0.257   0.243   0.284
    1UNL    H30   82   0.268   0.058  -0.207
    1UNL    H31   83   0.297   0.211  -0.111
    1UNL    H32   84   0.463   0.179  -0.311
    1UNL    H33   85   0.669   0.227  -0.172
    1UNL    H34   86   0.542   0.314  -0.104
    1UNL    H35   87   0.699   0.119   0.021
    1UNL    H36   88   0.557   0.165   0.231
    1UNL    H37   89   0.455   0.263   0.130
    1UNL    H38   90   0.674   0.402   0.065
    1UNL    H39   91   0.618   0.420   0.239
    1UNL    H40   92   0.753   0.326   0.193
    1UNL    H41   93   0.526  -0.038   0.117
    1UNL    H42   94   0.542  -0.246  -0.190
    1UNL    H43   95   0.647  -0.254  -0.061
    1UNL    H44   96   0.451  -0.392   0.021
    1UNL    H45   97   0.503  -0.257   0.123
    1UNL    H46   98   0.634  -0.004  -0.287
    1UNL    H47   99   0.478  -0.077  -0.284
    1UNL    H48  100  -0.245  -0.277   0.110
    1UNL    H49  101  -0.162  -0.134   0.151
    1UNL    H50  102  -0.440  -0.161   0.145
    1UNL    H51  103  -0.272  -0.026   0.274
    1UNL    H52  104  -0.691  -0.076   0.440
    1UNL    H53  105  -0.660   0.103   0.411
    1UNL    H54  106  -0.773   0.014   0.311
   0.00000   0.00000   0.00000   0.00000   0.00000   0.00000   0.00000   0.00000   0.00000
Generated with MDTraj, t= 72.0
 106
    1UNL     C1    1  -0.668  -0.142   0.014
    1UNL     C2    2  -0.538  -0.155  -0.060
    1UNL     C3    3  -0.429  -0.059  -0.020
    1UNL     C4    4  -0.489   0.086  -0.002
    1UNL     N1    5  -0.378   0.185   0.021
    1UNL     C5    6  -0.424   0.322   0.020
    1UNL     C6    7  -0.279   0.145   0.131
    1UNL     C7    8  -0.140   0.126   0.075
    1UNL     C8    9  -0.133   0.084  -0.072
    1UNL     C9   10  -0.134  -0.045  -0.120
    1UNL     N2   11  -0.124  -0.042  -0.264
    1UNL    C10   12  -0.113   0.090  -0.301
    1UNL    C11   13  -0.100   0.146  -0.430
    1UNL    C12   14  -0.083   0.280  -0.436
    1UNL    C13   15  -0.080   0.359  -0.320
    1UNL    C14   16  -0.102   0.304  -0.194
    1UNL    C15   17  -0.113   0.170  -0.181
    1UNL    C16   18  -0.157  -0.189  -0.053
    1UNL    C17   19  -0.037  -0.273  -0.053
    1UNL    C18   20  -0.059  -0.409  -0.043
    1UNL     O1   21  -0.193  -0.451  -0.081
    1UNL    C19   22  -0.196  -0.583  -0.127
    1UNL    C20   23   0.046  -0.498  -0.014
    1UNL    C21   24   0.172  -0.448  -0.002
    1UNL    C22   25   0.202  -0.310  -0.015
    1UNL    C23   26   0.315  -0.229   0.006
    1UNL    C24   27   0.274  -0.094  -0.008
    1UNL     N3   28   0.139  -0.093  -0.037
    1UNL    C25   29   0.094  -0.224  -0.035
    1UNL    C26   30   0.343   0.037   0.010
    1UNL    C27   31   0.288   0.121   0.123
    1UNL     O2   32   0.309   0.079   0.234
    1UNL     O3   33   0.210   0.227   0.082
    1UNL    C28   34   0.148   0.278   0.195
    1UNL    C29   35   0.333   0.115  -0.136
    1UNL    C30   36   0.470   0.146  -0.197
    1UNL    C31   37   0.557   0.224  -0.098
    1UNL    C32   38   0.589   0.141   0.028
    1UNL    C33   39   0.581   0.210   0.166
    1UNL    C34   40   0.682   0.319   0.195
    1UNL    C35   41   0.500   0.010   0.028
    1UNL     N4   42   0.558  -0.069  -0.083
    1UNL    C36   43   0.538  -0.223  -0.105
    1UNL    C37   44   0.455  -0.281   0.004
    1UNL    C38   45   0.539   0.016  -0.216
    1UNL    C39   46  -0.225  -0.187   0.088
    1UNL    C40   47  -0.360  -0.105   0.111
    1UNL    C41   48  -0.333   0.020   0.202
    1UNL    C42   49  -0.457   0.064   0.280
    1UNL     O4   50  -0.462   0.167   0.344
    1UNL     O5   51  -0.555  -0.033   0.281
    1UNL    C43   52  -0.664   0.022   0.347
    1UNL     H1   53  -0.744  -0.217  -0.007
    1UNL     H2   54  -0.733  -0.054  -0.004
    1UNL     H3   55  -0.644  -0.120   0.111
    1UNL     H4   56  -0.568  -0.119  -0.162
    1UNL     H5   57  -0.492  -0.252  -0.046
    1UNL     H6   58  -0.358  -0.053  -0.100
    1UNL     H7   59  -0.530   0.109  -0.096
    1UNL     H8   60  -0.571   0.091   0.071
    1UNL     H9   61  -0.494   0.328  -0.071
    1UNL    H10   62  -0.346   0.389   0.001
    1UNL    H11   63  -0.472   0.351   0.118
    1UNL    H12   64  -0.278   0.229   0.204
    1UNL    H13   65  -0.085   0.224   0.077
    1UNL    H14   66  -0.079   0.050   0.136
    1UNL    H15   67  -0.107  -0.121  -0.323
    1UNL    H16   68  -0.122   0.086  -0.511
    1UNL    H17   69  -0.072   0.316  -0.539
    1UNL    H18   70  -0.057   0.464  -0.318
    1UNL    H19   71  -0.082   0.366  -0.107
    1UNL    H20   72  -0.219  -0.235  -0.127
    1UNL    H21   73  -0.098  -0.630  -0.145
    1UNL    H22   74  -0.243  -0.634  -0.042
    1UNL    H23   75  -0.255  -0.590  -0.219
    1UNL    H24   76   0.029  -0.600   0.005
    1UNL    H25   77   0.253  -0.519   0.028
    1UNL    H26   78   0.088  -0.018  -0.075
    1UNL    H27   79   0.195   0.244   0.287
    1UNL    H28   80   0.155   0.391   0.186
    1UNL    H29   81   0.045   0.251   0.185
    1UNL    H30   82   0.279   0.050  -0.204
    1UNL    H31   83   0.276   0.212  -0.124
    1UNL    H32   84   0.459   0.206  -0.283
    1UNL    H33   85   0.654   0.252  -0.147
    1UNL    H34   86   0.512   0.313  -0.071
    1UNL    H35   87   0.693   0.100   0.006
    1UNL    H36   88   0.594   0.128   0.238
    1UNL    H37   89   0.484   0.247   0.184
    1UNL    H38   90   0.665   0.404   0.125
    1UNL    H39   91   0.669   0.350   0.298
    1UNL    H40   92   0.786   0.296   0.179
    1UNL    H41   93   0.518  -0.030   0.125
    1UNL    H42   94   0.494  -0.244  -0.206
    1UNL    H43   95   0.637  -0.263  -0.119
    1UNL    H44   96   0.455  -0.387  -0.010
    1UNL    H45   97   0.506  -0.267   0.106
    1UNL    H46   98   0.637   0.030  -0.263
    1UNL    H47   99   0.482  -0.046  -0.285
    1UNL    H48  100  -0.260  -0.289   0.107
    1UNL    H49  101  -0.149  -0.171   0.165
    1UNL    H50  102  -0.430  -0.159   0.169
    1UNL    H51  103  -0.252  -0.010   0.269
    1UNL    H52  104  -0.748  -0.050   0.341
    1UNL    H53  105  -0.629   0.049   0.445
    1UNL    H54  106  -0.685   0.119   0.302
   0.00000   0.00000   0.00000   0.00000   0.00000   0.00000   0.00000   0.00000   0.00000
Generated with MDTraj, t= 73.0
 106
    1UNL     C1    1  -0.642  -0.186   0.023
    1UNL     C2    2  -0.521  -0.172  -0.063
    1UNL     C3    3  -0.426  -0.062  -0.021
    1UNL     C4    4  -0.487   0.084  -0.026
    1UNL     N1    5  -0.383   0.184   0.001
    1UNL     C5    6  -0.438   0.318   0.016
    1UNL     C6    7  -0.278   0.151   0.110
    1UNL     C7    8  -0.136   0.122   0.058
    1UNL     C8    9  -0.126   0.071  -0.080
    1UNL     C9   10  -0.149  -0.056  -0.132
    1UNL     N2   11  -0.147  -0.052  -0.270
    1UNL    C10   12  -0.125   0.079  -0.307
    1UNL    C11   13  -0.110   0.141  -0.433
    1UNL    C12   14  -0.092   0.278  -0.442
    1UNL    C13   15  -0.074   0.359  -0.324
    1UNL    C14   16  -0.083   0.297  -0.196
    1UNL    C15   17  -0.110   0.158  -0.193
    1UNL    C16   18  -0.182  -0.188  -0.055
    1UNL    C17   19  -0.052  -0.268  -0.043
    1UNL    C18   20  -0.064  -0.404  -0.055
    1UNL     O1   21  -0.191  -0.467  -0.052
    1UNL    C19   22  -0.201  -0.600  -0.092
    1UNL    C20   23   0.053  -0.488  -0.058
    1UNL    C21   24   0.180  -0.441  -0.056
    1UNL    C22   25   0.190  -0.306  -0.029
    1UNL    C23   26   0.305  -0.221  -0.014
    1UNL    C24   27   0.263  -0.092  -0.012
    1UNL     N3   28   0.125  -0.093  -0.026
    1UNL    C25   29   0.075  -0.220  -0.026
    1UNL    C26   30   0.339   0.038   0.006
    1UNL    C27   31   0.288   0.115   0.123
    1UNL     O2   32   0.342   0.092   0.229
    1UNL     O3   33   0.190   0.205   0.093
    1UNL    C28   34   0.180   0.286   0.212
    1UNL    C29   35   0.336   0.123  -0.126
    1UNL    C30   36   0.479   0.152  -0.189
    1UNL    C31   37   0.554   0.233  -0.073
    1UNL    C32   38   0.586   0.136   0.051
    1UNL    C33   39   0.581   0.206   0.190
    1UNL    C34   40   0.692   0.297   0.206
    1UNL    C35   41   0.496   0.008   0.038
    1UNL     N4   42   0.554  -0.056  -0.078
    1UNL    C36   43   0.532  -0.204  -0.106
    1UNL    C37   44   0.443  -0.272  -0.004
    1UNL    C38   45   0.558   0.025  -0.206
    1UNL    C39   46  -0.235  -0.183   0.088
    1UNL    C40   47  -0.358  -0.095   0.116
    1UNL    C41   48  -0.326   0.037   0.199
    1UNL    C42   49  -0.450   0.081   0.278
    1UNL     O4   50  -0.454   0.182   0.339
    1UNL     O5   51  -0.552  -0.011   0.292
    1UNL    C43   52  -0.653   0.035   0.372
    1UNL     H1   53  -0.725  -0.242  -0.017
    1UNL     H2   54  -0.692  -0.094   0.055
    1UNL     H3   55  -0.605  -0.212   0.121
    1UNL     H4   56  -0.554  -0.141  -0.166
    1UNL     H5   57  -0.467  -0.265  -0.049
    1UNL     H6   58  -0.356  -0.058  -0.100
    1UNL     H7   59  -0.524   0.108  -0.123
    1UNL     H8   60  -0.567   0.095   0.044
    1UNL     H9   61  -0.481   0.344  -0.080
    1UNL    H10   62  -0.353   0.383   0.030
    1UNL    H11   63  -0.508   0.333   0.107
    1UNL    H12   64  -0.283   0.242   0.174
    1UNL    H13   65  -0.083   0.223   0.055
    1UNL    H14   66  -0.079   0.045   0.120
    1UNL    H15   67  -0.184  -0.126  -0.328
    1UNL    H16   68  -0.136   0.081  -0.525
    1UNL    H17   69  -0.088   0.337  -0.531
    1UNL    H18   70  -0.042   0.459  -0.347
    1UNL    H19   71  -0.042   0.358  -0.118
    1UNL    H20   72  -0.253  -0.240  -0.115
    1UNL    H21   73  -0.211  -0.613  -0.198
    1UNL    H22   74  -0.115  -0.661  -0.055
    1UNL    H23   75  -0.299  -0.643  -0.044
    1UNL    H24   76   0.033  -0.593  -0.087
    1UNL    H25   77   0.271  -0.488  -0.082
    1UNL    H26   78   0.064  -0.015  -0.042
    1UNL    H27   79   0.135   0.227   0.291
    1UNL    H28   80   0.285   0.316   0.247
    1UNL    H29   81   0.132   0.377   0.187
    1UNL    H30   82   0.284   0.059  -0.194
    1UNL    H31   83   0.273   0.218  -0.106
    1UNL    H32   84   0.467   0.200  -0.278
    1UNL    H33   85   0.637   0.287  -0.118
    1UNL    H34   86   0.489   0.311  -0.033
    1UNL    H35   87   0.685   0.091   0.025
    1UNL    H36   88   0.577   0.130   0.272
    1UNL    H37   89   0.484   0.251   0.197
    1UNL    H38   90   0.700   0.366   0.118
    1UNL    H39   91   0.682   0.347   0.299
    1UNL    H40   92   0.790   0.247   0.204
    1UNL    H41   93   0.513  -0.054   0.125
    1UNL    H42   94   0.490  -0.213  -0.210
    1UNL    H43   95   0.626  -0.252  -0.116
    1UNL    H44   96   0.454  -0.379  -0.009
    1UNL    H45   97   0.493  -0.255   0.098
    1UNL    H46   98   0.664   0.048  -0.233
    1UNL    H47   99   0.519  -0.038  -0.285
    1UNL    H48  100  -0.256  -0.287   0.113
    1UNL    H49  101  -0.159  -0.154   0.160
    1UNL    H50  102  -0.428  -0.147   0.178
    1UNL    H51  103  -0.247   0.015   0.272
    1UNL    H52  104  -0.744   0.029   0.309
    1UNL    H53  105  -0.656  -0.036   0.452
    1UNL    H54  106  -0.625   0.127   0.422
   0.00000   0.00000   0.00000   0.00000   0.00000   0.00000   0.00000   0.00000   0.00000
Generated with MDTraj, t= 74.0
 106
    1UNL     C1    1  -0.657  -0.211   0.049
    1UNL     C2    2  -0.563  -0.151  -0.067
    1UNL     C3    3  -0.450  -0.055  -0.020
    1UNL     C4    4  -0.502   0.090  -0.015
    1UNL     N1    5  -0.383   0.183   0.002
    1UNL     C5    6  -0.411   0.337  -0.005
    1UNL     C6    7  -0.295   0.149   0.117
    1UNL     C7    8  -0.155   0.143   0.058
    1UNL     C8    9  -0.135   0.079  -0.081
    1UNL     C9   10  -0.143  -0.055  -0.119
    1UNL     N2   11  -0.146  -0.051  -0.257
    1UNL    C10   12  -0.123   0.071  -0.301
    1UNL    C11   13  -0.106   0.108  -0.439
    1UNL    C12   14  -0.082   0.241  -0.457
    1UNL    C13   15  -0.086   0.337  -0.350
    1UNL    C14   16  -0.090   0.296  -0.220
    1UNL    C15   17  -0.109   0.157  -0.193
    1UNL    C16   18  -0.167  -0.185  -0.049
    1UNL    C17   19  -0.041  -0.269  -0.046
    1UNL    C18   20  -0.060  -0.406  -0.074
    1UNL     O1   21  -0.193  -0.453  -0.087
    1UNL    C19   22  -0.213  -0.583  -0.038
    1UNL    C20   23   0.056  -0.492  -0.089
    1UNL    C21   24   0.182  -0.445  -0.080
    1UNL    C22   25   0.202  -0.305  -0.061
    1UNL    C23   26   0.323  -0.226  -0.032
    1UNL    C24   27   0.277  -0.098  -0.005
    1UNL     N3   28   0.138  -0.094  -0.012
    1UNL    C25   29   0.091  -0.218  -0.043
    1UNL    C26   30   0.352   0.036   0.020
    1UNL    C27   31   0.288   0.110   0.141
    1UNL     O2   32   0.317   0.082   0.256
    1UNL     O3   33   0.215   0.216   0.099
    1UNL    C28   34   0.155   0.274   0.212
    1UNL    C29   35   0.333   0.124  -0.108
    1UNL    C30   36   0.465   0.166  -0.172
    1UNL    C31   37   0.558   0.237  -0.068
    1UNL    C32   38   0.590   0.134   0.052
    1UNL    C33   39   0.577   0.189   0.203
    1UNL    C34   40   0.690   0.297   0.227
    1UNL    C35   41   0.509   0.005   0.035
    1UNL     N4   42   0.558  -0.053  -0.090
    1UNL    C36   43   0.563  -0.198  -0.120
    1UNL    C37   44   0.467  -0.273  -0.028
    1UNL    C38   45   0.541   0.039  -0.214
    1UNL    C39   46  -0.224  -0.165   0.087
    1UNL    C40   47  -0.363  -0.094   0.106
    1UNL    C41   48  -0.332   0.027   0.198
    1UNL    C42   49  -0.453   0.069   0.282
    1UNL     O4   50  -0.453   0.179   0.325
    1UNL     O5   51  -0.560  -0.013   0.302
    1UNL    C43   52  -0.640   0.060   0.393
    1UNL     H1   53  -0.752  -0.251   0.019
    1UNL     H2   54  -0.676  -0.135   0.120
    1UNL     H3   55  -0.591  -0.275   0.114
    1UNL     H4   56  -0.624  -0.094  -0.143
    1UNL     H5   57  -0.514  -0.241  -0.103
    1UNL     H6   58  -0.388  -0.056  -0.108
    1UNL     H7   59  -0.556   0.117  -0.105
    1UNL     H8   60  -0.566   0.106   0.064
    1UNL     H9   61  -0.482   0.348  -0.081
    1UNL    H10   62  -0.319   0.398  -0.031
    1UNL    H11   63  -0.448   0.379   0.093
    1UNL    H12   64  -0.302   0.233   0.187
    1UNL    H13   65  -0.124   0.250   0.032
    1UNL    H14   66  -0.092   0.091   0.136
    1UNL    H15   67  -0.130  -0.131  -0.319
    1UNL    H16   68  -0.117   0.045  -0.522
    1UNL    H17   69  -0.095   0.274  -0.562
    1UNL    H18   70  -0.070   0.443  -0.370
    1UNL    H19   71  -0.096   0.362  -0.135
    1UNL    H20   72  -0.243  -0.237  -0.104
    1UNL    H21   73  -0.145  -0.660  -0.071
    1UNL    H22   74  -0.215  -0.593   0.076
    1UNL    H23   75  -0.322  -0.607  -0.083
    1UNL    H24   76   0.053  -0.597  -0.108
    1UNL    H25   77   0.269  -0.497  -0.122
    1UNL    H26   78   0.089  -0.009   0.028
    1UNL    H27   79   0.056   0.233   0.205
    1UNL    H28   80   0.202   0.237   0.311
    1UNL    H29   81   0.161   0.381   0.211
    1UNL    H30   82   0.273   0.066  -0.173
    1UNL    H31   83   0.278   0.222  -0.079
    1UNL    H32   84   0.444   0.226  -0.251
    1UNL    H33   85   0.649   0.266  -0.111
    1UNL    H34   86   0.508   0.333  -0.033
    1UNL    H35   87   0.692   0.098   0.037
    1UNL    H36   88   0.574   0.105   0.274
    1UNL    H37   89   0.474   0.226   0.210
    1UNL    H38   90   0.692   0.368   0.141
    1UNL    H39   91   0.676   0.338   0.322
    1UNL    H40   92   0.788   0.246   0.222
    1UNL    H41   93   0.519  -0.063   0.119
    1UNL    H42   94   0.533  -0.213  -0.226
    1UNL    H43   95   0.662  -0.239  -0.115
    1UNL    H44   96   0.477  -0.377  -0.053
    1UNL    H45   97   0.505  -0.262   0.078
    1UNL    H46   98   0.642   0.068  -0.250
    1UNL    H47   99   0.492  -0.012  -0.297
    1UNL    H48  100  -0.225  -0.262   0.139
    1UNL    H49  101  -0.148  -0.112   0.141
    1UNL    H50  102  -0.435  -0.164   0.154
    1UNL    H51  103  -0.245   0.011   0.263
    1UNL    H52  104  -0.678   0.152   0.343
    1UNL    H53  105  -0.724  -0.003   0.422
    1UNL    H54  106  -0.583   0.070   0.485
   0.00000   0.00000   0.00000   0.00000   0.00000   0.00000   0.00000   0.00000   0.00000
Generated with MDTraj, t= 75.0
 106
    1UNL     C1    1  -0.654  -0.171   0.073
    1UNL     C2    2  -0.538  -0.169  -0.020
    1UNL     C3    3  -0.432  -0.059  -0.004
    1UNL     C4    4  -0.489   0.084  -0.008
    1UNL     N1    5  -0.385   0.183  -0.005
    1UNL     C5    6  -0.430   0.317  -0.037
    1UNL     C6    7  -0.283   0.160   0.109
    1UNL     C7    8  -0.141   0.125   0.051
    1UNL     C8    9  -0.145   0.071  -0.089
    1UNL     C9   10  -0.156  -0.060  -0.132
    1UNL     N2   11  -0.123  -0.067  -0.264
    1UNL    C10   12  -0.108   0.061  -0.323
    1UNL    C11   13  -0.077   0.109  -0.448
    1UNL    C12   14  -0.078   0.245  -0.471
    1UNL    C13   15  -0.085   0.331  -0.354
    1UNL    C14   16  -0.119   0.286  -0.232
    1UNL    C15   17  -0.120   0.146  -0.210
    1UNL    C16   18  -0.172  -0.186  -0.054
    1UNL    C17   19  -0.042  -0.268  -0.061
    1UNL    C18   20  -0.057  -0.401  -0.102
    1UNL     O1   21  -0.185  -0.467  -0.119
    1UNL    C19   22  -0.237  -0.536   0.001
    1UNL    C20   23   0.060  -0.485  -0.102
    1UNL    C21   24   0.187  -0.437  -0.073
    1UNL    C22   25   0.197  -0.301  -0.041
    1UNL    C23   26   0.314  -0.222  -0.029
    1UNL    C24   27   0.265  -0.087  -0.019
    1UNL     N3   28   0.125  -0.083  -0.017
    1UNL    C25   29   0.087  -0.217  -0.033
    1UNL    C26   30   0.347   0.036   0.009
    1UNL    C27   31   0.288   0.092   0.139
    1UNL     O2   32   0.300   0.032   0.245
    1UNL     O3   33   0.215   0.208   0.129
    1UNL    C28   34   0.180   0.238   0.258
    1UNL    C29   35   0.334   0.132  -0.120
    1UNL    C30   36   0.477   0.177  -0.171
    1UNL    C31   37   0.558   0.242  -0.059
    1UNL    C32   38   0.578   0.139   0.056
    1UNL    C33   39   0.567   0.192   0.201
    1UNL    C34   40   0.664   0.304   0.237
    1UNL    C35   41   0.499   0.012   0.031
    1UNL     N4   42   0.558  -0.049  -0.093
    1UNL    C36   43   0.534  -0.192  -0.134
    1UNL    C37   44   0.452  -0.264  -0.023
    1UNL    C38   45   0.560   0.051  -0.210
    1UNL    C39   46  -0.224  -0.166   0.092
    1UNL    C40   47  -0.351  -0.081   0.120
    1UNL    C41   48  -0.328   0.050   0.200
    1UNL    C42   49  -0.444   0.091   0.287
    1UNL     O4   50  -0.457   0.197   0.338
    1UNL     O5   51  -0.528  -0.018   0.303
    1UNL    C43   52  -0.642   0.028   0.379
    1UNL     H1   53  -0.730  -0.243   0.050
    1UNL     H2   54  -0.713  -0.083   0.065
    1UNL     H3   55  -0.628  -0.170   0.185
    1UNL     H4   56  -0.590  -0.140  -0.117
    1UNL     H5   57  -0.478  -0.262  -0.016
    1UNL     H6   58  -0.376  -0.070  -0.097
    1UNL     H7   59  -0.548   0.111  -0.095
    1UNL     H8   60  -0.551   0.103   0.072
    1UNL     H9   61  -0.488   0.318  -0.127
    1UNL    H10   62  -0.335   0.384  -0.043
    1UNL    H11   63  -0.484   0.353   0.050
    1UNL    H12   64  -0.281   0.256   0.159
    1UNL    H13   65  -0.089   0.227   0.058
    1UNL    H14   66  -0.100   0.050   0.121
    1UNL    H15   67  -0.131  -0.150  -0.325
    1UNL    H16   68  -0.064   0.032  -0.525
    1UNL    H17   69  -0.056   0.289  -0.563
    1UNL    H18   70  -0.082   0.437  -0.370
    1UNL    H19   71  -0.129   0.356  -0.151
    1UNL    H20   72  -0.247  -0.237  -0.115
    1UNL    H21   73  -0.232  -0.648  -0.003
    1UNL    H22   74  -0.187  -0.511   0.101
    1UNL    H23   75  -0.351  -0.507   0.003
    1UNL    H24   76   0.052  -0.594  -0.116
    1UNL    H25   77   0.278  -0.491  -0.097
    1UNL    H26   78   0.064   0.002  -0.033
    1UNL    H27   79   0.119   0.153   0.280
    1UNL    H28   80   0.269   0.250   0.333
    1UNL    H29   81   0.125   0.330   0.263
    1UNL    H30   82   0.276   0.083  -0.196
    1UNL    H31   83   0.282   0.228  -0.088
    1UNL    H32   84   0.472   0.241  -0.251
    1UNL    H33   85   0.647   0.280  -0.095
    1UNL    H34   86   0.496   0.328  -0.015
    1UNL    H35   87   0.681   0.105   0.057
    1UNL    H36   88   0.573   0.103   0.265
    1UNL    H37   89   0.462   0.226   0.217
    1UNL    H38   90   0.648   0.395   0.177
    1UNL    H39   91   0.653   0.311   0.341
    1UNL    H40   92   0.768   0.270   0.215
    1UNL    H41   93   0.507  -0.058   0.114
    1UNL    H42   94   0.482  -0.204  -0.233
    1UNL    H43   95   0.628  -0.239  -0.152
    1UNL    H44   96   0.439  -0.368  -0.052
    1UNL    H45   97   0.481  -0.256   0.084
    1UNL    H46   98   0.665   0.085  -0.230
    1UNL    H47   99   0.523   0.011  -0.304
    1UNL    H48  100  -0.235  -0.269   0.131
    1UNL    H49  101  -0.149  -0.128   0.155
    1UNL    H50  102  -0.423  -0.148   0.182
    1UNL    H51  103  -0.247   0.034   0.272
    1UNL    H52  104  -0.635   0.138   0.399
    1UNL    H53  105  -0.734   0.018   0.318
    1UNL    H54  106  -0.654  -0.037   0.465
   0.00000   0.00000   0.00000   0.00000   0.00000   0.00000   0.00000   0.00000   0.00000
Generated with MDTraj, t= 76.0
 106
    1UNL     C1    1  -0.666  -0.149   0.070
    1UNL     C2    2  -0.539  -0.198  -0.001
    1UNL     C3    3  -0.431  -0.081   0.001
    1UNL     C4    4  -0.488   0.060  -0.011
    1UNL     N1    5  -0.381   0.170  -0.008
    1UNL     C5    6  -0.441   0.297  -0.029
    1UNL     C6    7  -0.275   0.155   0.097
    1UNL     C7    8  -0.132   0.143   0.037
    1UNL     C8    9  -0.136   0.094  -0.104
    1UNL     C9   10  -0.146  -0.043  -0.135
    1UNL     N2   11  -0.116  -0.059  -0.271
    1UNL    C10   12  -0.111   0.070  -0.325
    1UNL    C11   13  -0.091   0.106  -0.457
    1UNL    C12   14  -0.068   0.241  -0.489
    1UNL    C13   15  -0.068   0.335  -0.388
    1UNL    C14   16  -0.092   0.303  -0.254
    1UNL    C15   17  -0.115   0.166  -0.222
    1UNL    C16   18  -0.157  -0.171  -0.057
    1UNL    C17   19  -0.040  -0.267  -0.071
    1UNL    C18   20  -0.066  -0.402  -0.088
    1UNL     O1   21  -0.206  -0.447  -0.106
    1UNL    C19   22  -0.255  -0.509   0.016
    1UNL    C20   23   0.048  -0.490  -0.079
    1UNL    C21   24   0.178  -0.453  -0.061
    1UNL    C22   25   0.200  -0.314  -0.057
    1UNL    C23   26   0.316  -0.231  -0.044
    1UNL    C24   27   0.273  -0.104  -0.021
    1UNL     N3   28   0.132  -0.095  -0.037
    1UNL    C25   29   0.090  -0.226  -0.059
    1UNL    C26   30   0.345   0.028   0.018
    1UNL    C27   31   0.289   0.079   0.151
    1UNL     O2   32   0.301   0.017   0.254
    1UNL     O3   33   0.230   0.199   0.149
    1UNL    C28   34   0.178   0.234   0.271
    1UNL    C29   35   0.319   0.140  -0.093
    1UNL    C30   36   0.453   0.183  -0.154
    1UNL    C31   37   0.535   0.250  -0.041
    1UNL    C32   38   0.574   0.141   0.069
    1UNL    C33   39   0.546   0.201   0.211
    1UNL    C34   40   0.638   0.312   0.251
    1UNL    C35   41   0.497   0.011   0.036
    1UNL     N4   42   0.542  -0.040  -0.101
    1UNL    C36   43   0.541  -0.181  -0.151
    1UNL    C37   44   0.462  -0.275  -0.051
    1UNL    C38   45   0.528   0.054  -0.211
    1UNL    C39   46  -0.200  -0.167   0.089
    1UNL    C40   47  -0.329  -0.088   0.121
    1UNL    C41   48  -0.313   0.045   0.198
    1UNL    C42   49  -0.434   0.084   0.281
    1UNL     O4   50  -0.453   0.196   0.317
    1UNL     O5   51  -0.517  -0.016   0.317
    1UNL    C43   52  -0.619   0.041   0.399
    1UNL     H1   53  -0.754  -0.208   0.063
    1UNL     H2   54  -0.709  -0.060   0.031
    1UNL     H3   55  -0.651  -0.124   0.180
    1UNL     H4   56  -0.560  -0.220  -0.109
    1UNL     H5   57  -0.497  -0.281   0.058
    1UNL     H6   58  -0.379  -0.088  -0.096
    1UNL     H7   59  -0.534   0.067  -0.108
    1UNL     H8   60  -0.565   0.082   0.058
    1UNL     H9   61  -0.503   0.291  -0.123
    1UNL    H10   62  -0.373   0.386  -0.031
    1UNL    H11   63  -0.500   0.306   0.059
    1UNL    H12   64  -0.283   0.251   0.149
    1UNL    H13   65  -0.080   0.244   0.042
    1UNL    H14   66  -0.082   0.078   0.111
    1UNL    H15   67  -0.115  -0.154  -0.314
    1UNL    H16   68  -0.080   0.029  -0.533
    1UNL    H17   69  -0.055   0.260  -0.597
    1UNL    H18   70  -0.032   0.433  -0.418
    1UNL    H19   71  -0.103   0.370  -0.171
    1UNL    H20   72  -0.237  -0.215  -0.119
    1UNL    H21   73  -0.256  -0.624   0.012
    1UNL    H22   74  -0.198  -0.485   0.114
    1UNL    H23   75  -0.361  -0.476   0.023
    1UNL    H24   76   0.032  -0.595  -0.101
    1UNL    H25   77   0.256  -0.528  -0.060
    1UNL    H26   78   0.061  -0.023  -0.037
    1UNL    H27   79   0.211   0.160   0.342
    1UNL    H28   80   0.206   0.342   0.302
    1UNL    H29   81   0.072   0.230   0.269
    1UNL    H30   82   0.254   0.100  -0.173
    1UNL    H31   83   0.264   0.223  -0.047
    1UNL    H32   84   0.433   0.252  -0.233
    1UNL    H33   85   0.621   0.297  -0.078
    1UNL    H34   86   0.470   0.330   0.009
    1UNL    H35   87   0.679   0.123   0.065
    1UNL    H36   88   0.544   0.128   0.292
    1UNL    H37   89   0.437   0.235   0.203
    1UNL    H38   90   0.655   0.388   0.174
    1UNL    H39   91   0.605   0.346   0.347
    1UNL    H40   92   0.739   0.270   0.270
    1UNL    H41   93   0.520  -0.071   0.105
    1UNL    H42   94   0.531  -0.191  -0.263
    1UNL    H43   95   0.641  -0.219  -0.144
    1UNL    H44   96   0.466  -0.383  -0.070
    1UNL    H45   97   0.494  -0.259   0.050
    1UNL    H46   98   0.625   0.083  -0.258
    1UNL    H47   99   0.463   0.017  -0.292
    1UNL    H48  100  -0.212  -0.273   0.121
    1UNL    H49  101  -0.116  -0.145   0.148
    1UNL    H50  102  -0.384  -0.148   0.204
    1UNL    H51  103  -0.230   0.035   0.269
    1UNL    H52  104  -0.580   0.072   0.499
    1UNL    H53  105  -0.650   0.139   0.355
    1UNL    H54  106  -0.703  -0.028   0.402
   0.00000   0.00000   0.00000   0.00000   0.00000   0.00000   0.00000   0.00000   0.00000
Generated with MDTraj, t= 77.0
 106
    1UNL     C1    1  -0.651  -0.185   0.099
    1UNL     C2    2  -0.549  -0.185  -0.020
    1UNL     C3    3  -0.449  -0.070  -0.012
    1UNL     C4    4  -0.501   0.072  -0.012
    1UNL     N1    5  -0.397   0.177  -0.021
    1UNL     C5    6  -0.437   0.319  -0.047
    1UNL     C6    7  -0.286   0.169   0.077
    1UNL     C7    8  -0.146   0.156   0.021
    1UNL     C8    9  -0.131   0.076  -0.108
    1UNL     C9   10  -0.146  -0.054  -0.150
    1UNL     N2   11  -0.133  -0.056  -0.283
    1UNL    C10   12  -0.104   0.070  -0.332
    1UNL    C11   13  -0.091   0.111  -0.460
    1UNL    C12   14  -0.071   0.246  -0.487
    1UNL    C13   15  -0.058   0.335  -0.379
    1UNL    C14   16  -0.062   0.290  -0.248
    1UNL    C15   17  -0.099   0.151  -0.222
    1UNL    C16   18  -0.165  -0.178  -0.060
    1UNL    C17   19  -0.048  -0.271  -0.063
    1UNL    C18   20  -0.066  -0.411  -0.075
    1UNL     O1   21  -0.202  -0.455  -0.078
    1UNL    C19   22  -0.218  -0.548   0.023
    1UNL    C20   23   0.055  -0.497  -0.097
    1UNL    C21   24   0.185  -0.441  -0.090
    1UNL    C22   25   0.195  -0.303  -0.068
    1UNL    C23   26   0.314  -0.225  -0.042
    1UNL    C24   27   0.270  -0.096  -0.019
    1UNL     N3   28   0.133  -0.090  -0.019
    1UNL    C25   29   0.083  -0.215  -0.053
    1UNL    C26   30   0.339   0.033   0.015
    1UNL    C27   31   0.276   0.075   0.156
    1UNL     O2   32   0.293   0.005   0.255
    1UNL     O3   33   0.205   0.188   0.164
    1UNL    C28   34   0.159   0.198   0.292
    1UNL    C29   35   0.309   0.145  -0.093
    1UNL    C30   36   0.444   0.183  -0.156
    1UNL    C31   37   0.528   0.250  -0.045
    1UNL    C32   38   0.570   0.141   0.065
    1UNL    C33   39   0.547   0.189   0.215
    1UNL    C34   40   0.633   0.309   0.264
    1UNL    C35   41   0.495   0.016   0.029
    1UNL     N4   42   0.540  -0.044  -0.101
    1UNL    C36   43   0.550  -0.188  -0.133
    1UNL    C37   44   0.461  -0.265  -0.043
    1UNL    C38   45   0.511   0.053  -0.215
    1UNL    C39   46  -0.206  -0.146   0.080
    1UNL    C40   47  -0.342  -0.078   0.106
    1UNL    C41   48  -0.312   0.056   0.182
    1UNL    C42   49  -0.417   0.092   0.277
    1UNL     O4   50  -0.435   0.209   0.307
    1UNL     O5   51  -0.489  -0.010   0.333
    1UNL    C43   52  -0.578   0.046   0.422
    1UNL     H1   53  -0.722  -0.263   0.076
    1UNL     H2   54  -0.707  -0.093   0.105
    1UNL     H3   55  -0.598  -0.202   0.191
    1UNL     H4   56  -0.615  -0.176  -0.110
    1UNL     H5   57  -0.489  -0.278  -0.007
    1UNL     H6   58  -0.388  -0.073  -0.106
    1UNL     H7   59  -0.582   0.089  -0.077
    1UNL     H8   60  -0.542   0.073   0.087
    1UNL     H9   61  -0.494   0.339  -0.146
    1UNL    H10   62  -0.347   0.374  -0.057
    1UNL    H11   63  -0.483   0.365   0.040
    1UNL    H12   64  -0.296   0.264   0.132
    1UNL    H13   65  -0.104   0.258  -0.007
    1UNL    H14   66  -0.072   0.126   0.096
    1UNL    H15   67  -0.110  -0.142  -0.336
    1UNL    H16   68  -0.106   0.047  -0.545
    1UNL    H17   69  -0.072   0.282  -0.587
    1UNL    H18   70  -0.042   0.441  -0.392
    1UNL    H19   71  -0.044   0.366  -0.173
    1UNL    H20   72  -0.245  -0.236  -0.112
    1UNL    H21   73  -0.185  -0.653  -0.015
    1UNL    H22   74  -0.154  -0.522   0.116
    1UNL    H23   75  -0.323  -0.553   0.047
    1UNL    H24   76   0.033  -0.596  -0.125
    1UNL    H25   77   0.276  -0.501  -0.107
    1UNL    H26   78   0.080  -0.015   0.015
    1UNL    H27   79   0.239   0.244   0.348
    1UNL    H28   80   0.074   0.276   0.294
    1UNL    H29   81   0.137   0.107   0.340
    1UNL    H30   82   0.231   0.103  -0.165
    1UNL    H31   83   0.267   0.233  -0.052
    1UNL    H32   84   0.425   0.263  -0.231
    1UNL    H33   85   0.613   0.305  -0.087
    1UNL    H34   86   0.464   0.326   0.008
    1UNL    H35   87   0.674   0.124   0.048
    1UNL    H36   88   0.553   0.105   0.287
    1UNL    H37   89   0.441   0.230   0.235
    1UNL    H38   90   0.629   0.401   0.209
    1UNL    H39   91   0.627   0.324   0.374
    1UNL    H40   92   0.737   0.282   0.250
    1UNL    H41   93   0.513  -0.058   0.108
    1UNL    H42   94   0.525  -0.219  -0.239
    1UNL    H43   95   0.654  -0.216  -0.138
    1UNL    H44   96   0.472  -0.373  -0.058
    1UNL    H45   97   0.491  -0.248   0.055
    1UNL    H46   98   0.605   0.088  -0.264
    1UNL    H47   99   0.445   0.015  -0.295
    1UNL    H48  100  -0.205  -0.238   0.142
    1UNL    H49  101  -0.127  -0.091   0.126
    1UNL    H50  102  -0.396  -0.137   0.190
    1UNL    H51  103  -0.218   0.042   0.236
    1UNL    H52  104  -0.570   0.014   0.526
    1UNL    H53  105  -0.571   0.158   0.429
    1UNL    H54  106  -0.678   0.025   0.386
   0.00000   0.00000   0.00000   0.00000   0.00000   0.00000   0.00000   0.00000   0.00000
Generated with MDTraj, t= 78.0
 106
    1UNL     C1    1  -0.612  -0.200   0.117
    1UNL     C2    2  -0.547  -0.164  -0.025
    1UNL     C3    3  -0.440  -0.052  -0.019
    1UNL     C4    4  -0.490   0.094  -0.019
    1UNL     N1    5  -0.372   0.184  -0.026
    1UNL     C5    6  -0.405   0.323  -0.069
    1UNL     C6    7  -0.275   0.170   0.083
    1UNL     C7    8  -0.134   0.141   0.031
    1UNL     C8    9  -0.140   0.084  -0.111
    1UNL     C9   10  -0.164  -0.050  -0.141
    1UNL     N2   11  -0.154  -0.058  -0.275
    1UNL    C10   12  -0.114   0.058  -0.334
    1UNL    C11   13  -0.066   0.098  -0.459
    1UNL    C12   14  -0.042   0.231  -0.492
    1UNL    C13   15  -0.054   0.324  -0.388
    1UNL    C14   16  -0.086   0.286  -0.262
    1UNL    C15   17  -0.119   0.155  -0.233
    1UNL    C16   18  -0.181  -0.175  -0.067
    1UNL    C17   19  -0.058  -0.261  -0.081
    1UNL    C18   20  -0.062  -0.406  -0.085
    1UNL     O1   21  -0.188  -0.485  -0.075
    1UNL    C19   22  -0.174  -0.603   0.000
    1UNL    C20   23   0.054  -0.485  -0.100
    1UNL    C21   24   0.181  -0.436  -0.101
    1UNL    C22   25   0.187  -0.296  -0.072
    1UNL    C23   26   0.299  -0.213  -0.046
    1UNL    C24   27   0.254  -0.084  -0.028
    1UNL     N3   28   0.119  -0.084  -0.044
    1UNL    C25   29   0.076  -0.213  -0.059
    1UNL    C26   30   0.334   0.030   0.030
    1UNL    C27   31   0.272   0.069   0.165
    1UNL     O2   32   0.316   0.019   0.267
    1UNL     O3   33   0.166   0.160   0.162
    1UNL    C28   34   0.120   0.175   0.296
    1UNL    C29   35   0.313   0.148  -0.071
    1UNL    C30   36   0.446   0.186  -0.148
    1UNL    C31   37   0.540   0.251  -0.040
    1UNL    C32   38   0.561   0.142   0.075
    1UNL    C33   39   0.545   0.209   0.212
    1UNL    C34   40   0.653   0.312   0.242
    1UNL    C35   41   0.490   0.008   0.039
    1UNL     N4   42   0.535  -0.037  -0.099
    1UNL    C36   43   0.525  -0.186  -0.129
    1UNL    C37   44   0.433  -0.264  -0.029
    1UNL    C38   45   0.512   0.060  -0.207
    1UNL    C39   46  -0.210  -0.151   0.078
    1UNL    C40   47  -0.345  -0.076   0.109
    1UNL    C41   48  -0.320   0.058   0.182
    1UNL    C42   49  -0.423   0.103   0.283
    1UNL     O4   50  -0.448   0.222   0.310
    1UNL     O5   51  -0.479  -0.001   0.351
    1UNL    C43   52  -0.551   0.051   0.448
    1UNL     H1   53  -0.710  -0.249   0.100
    1UNL     H2   54  -0.633  -0.116   0.185
    1UNL     H3   55  -0.554  -0.264   0.174
    1UNL     H4   56  -0.628  -0.112  -0.080
    1UNL     H5   57  -0.506  -0.258  -0.071
    1UNL     H6   58  -0.378  -0.057  -0.113
    1UNL     H7   59  -0.553   0.106  -0.101
    1UNL     H8   60  -0.550   0.114   0.070
    1UNL     H9   61  -0.453   0.325  -0.172
    1UNL    H10   62  -0.321   0.385  -0.078
    1UNL    H11   63  -0.464   0.376   0.009
    1UNL    H12   64  -0.278   0.264   0.143
    1UNL    H13   65  -0.081   0.241   0.024
    1UNL    H14   66  -0.062   0.090   0.097
    1UNL    H15   67  -0.192  -0.141  -0.326
    1UNL    H16   68  -0.060   0.035  -0.548
    1UNL    H17   69  -0.001   0.261  -0.590
    1UNL    H18   70  -0.049   0.427  -0.419
    1UNL    H19   71  -0.073   0.356  -0.182
    1UNL    H20   72  -0.257  -0.238  -0.123
    1UNL    H21   73  -0.127  -0.684  -0.068
    1UNL    H22   74  -0.113  -0.588   0.094
    1UNL    H23   75  -0.270  -0.639   0.022
    1UNL    H24   76   0.052  -0.593  -0.127
    1UNL    H25   77   0.265  -0.498  -0.092
    1UNL    H26   78   0.074   0.007  -0.030
    1UNL    H27   79   0.194   0.239   0.343
    1UNL    H28   80   0.024   0.235   0.310
    1UNL    H29   81   0.128   0.086   0.354
    1UNL    H30   82   0.235   0.129  -0.154
    1UNL    H31   83   0.276   0.225  -0.011
    1UNL    H32   84   0.426   0.258  -0.236
    1UNL    H33   85   0.638   0.295  -0.078
    1UNL    H34   86   0.486   0.337  -0.000
    1UNL    H35   87   0.666   0.123   0.064
    1UNL    H36   88   0.541   0.143   0.301
    1UNL    H37   89   0.444   0.264   0.217
    1UNL    H38   90   0.677   0.390   0.174
    1UNL    H39   91   0.641   0.354   0.347
    1UNL    H40   92   0.750   0.267   0.251
    1UNL    H41   93   0.517  -0.070   0.113
    1UNL    H42   94   0.492  -0.198  -0.237
    1UNL    H43   95   0.615  -0.245  -0.144
    1UNL    H44   96   0.432  -0.373  -0.052
    1UNL    H45   97   0.474  -0.259   0.066
    1UNL    H46   98   0.610   0.091  -0.250
    1UNL    H47   99   0.449   0.018  -0.289
    1UNL    H48  100  -0.217  -0.253   0.122
    1UNL    H49  101  -0.134  -0.098   0.134
    1UNL    H50  102  -0.405  -0.140   0.186
    1UNL    H51  103  -0.228   0.045   0.241
    1UNL    H52  104  -0.598  -0.021   0.513
    1UNL    H53  105  -0.492   0.121   0.512
    1UNL    H54  106  -0.632   0.104   0.402
   0.00000   0.00000   0.00000   0.00000   0.00000   0.00000   0.00000   0.00000   0.00000
Generated with MDTraj, t= 79.0
 106
    1UNL     C1    1  -0.640  -0.162   0.104
    1UNL     C2    2  -0.557  -0.164  -0.016
    1UNL     C3    3  -0.445  -0.054   0.002
    1UNL     C4    4  -0.492   0.092   0.013
    1UNL     N1    5  -0.378   0.183  -0.011
    1UNL     C5    6  -0.417   0.315  -0.050
    1UNL     C6    7  -0.267   0.163   0.089
    1UNL     C7    8  -0.131   0.132   0.023
    1UNL     C8    9  -0.124   0.073  -0.116
    1UNL     C9   10  -0.143  -0.055  -0.150
    1UNL     N2   11  -0.130  -0.072  -0.291
    1UNL    C10   12  -0.102   0.055  -0.341
    1UNL    C11   13  -0.088   0.086  -0.477
    1UNL    C12   14  -0.052   0.211  -0.503
    1UNL    C13   15  -0.039   0.301  -0.399
    1UNL    C14   16  -0.058   0.283  -0.266
    1UNL    C15   17  -0.100   0.149  -0.235
    1UNL    C16   18  -0.169  -0.180  -0.063
    1UNL    C17   19  -0.044  -0.264  -0.063
    1UNL    C18   20  -0.060  -0.406  -0.070
    1UNL     O1   21  -0.195  -0.446  -0.073
    1UNL    C19   22  -0.223  -0.582  -0.073
    1UNL    C20   23   0.050  -0.491  -0.096
    1UNL    C21   24   0.179  -0.437  -0.099
    1UNL    C22   25   0.199  -0.300  -0.078
    1UNL    C23   26   0.314  -0.210  -0.057
    1UNL    C24   27   0.267  -0.084  -0.022
    1UNL     N3   28   0.135  -0.089  -0.029
    1UNL    C25   29   0.085  -0.212  -0.053
    1UNL    C26   30   0.329   0.037   0.035
    1UNL    C27   31   0.268   0.078   0.169
    1UNL     O2   32   0.325   0.068   0.275
    1UNL     O3   33   0.138   0.131   0.156
    1UNL    C28   34   0.080   0.152   0.281
    1UNL    C29   35   0.303   0.159  -0.063
    1UNL    C30   36   0.427   0.194  -0.144
    1UNL    C31   37   0.530   0.252  -0.046
    1UNL    C32   38   0.571   0.149   0.067
    1UNL    C33   39   0.538   0.201   0.207
    1UNL    C34   40   0.643   0.306   0.252
    1UNL    C35   41   0.491   0.017   0.037
    1UNL     N4   42   0.532  -0.030  -0.101
    1UNL    C36   43   0.559  -0.176  -0.113
    1UNL    C37   44   0.451  -0.260  -0.040
    1UNL    C38   45   0.483   0.064  -0.214
    1UNL    C39   46  -0.227  -0.172   0.087
    1UNL    C40   47  -0.344  -0.077   0.119
    1UNL    C41   48  -0.299   0.056   0.195
    1UNL    C42   49  -0.407   0.100   0.289
    1UNL     O4   50  -0.454   0.215   0.281
    1UNL     O5   51  -0.449   0.009   0.380
    1UNL    C43   52  -0.555   0.057   0.449
    1UNL     H1   53  -0.730  -0.226   0.105
    1UNL     H2   54  -0.685  -0.066   0.140
    1UNL     H3   55  -0.591  -0.198   0.186
    1UNL     H4   56  -0.613  -0.123  -0.101
    1UNL     H5   57  -0.512  -0.265  -0.032
    1UNL     H6   58  -0.383  -0.058  -0.093
    1UNL     H7   59  -0.563   0.108  -0.058
    1UNL     H8   60  -0.545   0.113   0.106
    1UNL     H9   61  -0.492   0.305  -0.124
    1UNL    H10   62  -0.338   0.369  -0.102
    1UNL    H11   63  -0.444   0.382   0.038
    1UNL    H12   64  -0.254   0.256   0.151
    1UNL    H13   65  -0.064   0.220   0.040
    1UNL    H14   66  -0.082   0.062   0.092
    1UNL    H15   67  -0.080  -0.156  -0.328
    1UNL    H16   68  -0.090   0.005  -0.542
    1UNL    H17   69  -0.048   0.251  -0.602
    1UNL    H18   70   0.007   0.396  -0.427
    1UNL    H19   71  -0.054   0.356  -0.186
    1UNL    H20   72  -0.241  -0.235  -0.130
    1UNL    H21   73  -0.207  -0.621  -0.175
    1UNL    H22   74  -0.165  -0.632   0.006
    1UNL    H23   75  -0.328  -0.594  -0.056
    1UNL    H24   76   0.028  -0.589  -0.124
    1UNL    H25   77   0.273  -0.498  -0.098
    1UNL    H26   78   0.070  -0.008  -0.017
    1UNL    H27   79   0.156   0.169   0.356
    1UNL    H28   80   0.022   0.250   0.277
    1UNL    H29   81   0.026   0.067   0.315
    1UNL    H30   82   0.230   0.118  -0.141
    1UNL    H31   83   0.260   0.245  -0.021
    1UNL    H32   84   0.404   0.276  -0.227
    1UNL    H33   85   0.623   0.276  -0.115
    1UNL    H34   86   0.497   0.348  -0.013
    1UNL    H35   87   0.673   0.121   0.052
    1UNL    H36   88   0.532   0.121   0.284
    1UNL    H37   89   0.439   0.257   0.211
    1UNL    H38   90   0.652   0.397   0.198
    1UNL    H39   91   0.642   0.323   0.365
    1UNL    H40   92   0.739   0.264   0.234
    1UNL    H41   93   0.529  -0.059   0.112
    1UNL    H42   94   0.581  -0.226  -0.213
    1UNL    H43   95   0.659  -0.193  -0.075
    1UNL    H44   96   0.466  -0.362  -0.080
    1UNL    H45   97   0.475  -0.264   0.062
    1UNL    H46   98   0.567   0.077  -0.285
    1UNL    H47   99   0.400   0.013  -0.266
    1UNL    H48  100  -0.260  -0.277   0.108
    1UNL    H49  101  -0.142  -0.154   0.155
    1UNL    H50  102  -0.411  -0.129   0.199
    1UNL    H51  103  -0.211   0.052   0.262
    1UNL    H52  104  -0.646   0.005   0.426
    1UNL    H53  105  -0.534   0.055   0.558
    1UNL    H54  106  -0.569   0.159   0.420
   0.00000   0.00000   0.00000   0.00000   0.00000   0.00000   0.00000   0.00000   0.00000
Generated with MDTraj, t= 80.0
 106
    1UNL     C1    1  -0.669  -0.109   0.100
    1UNL     C2    2  -0.552  -0.166   0.016
    1UNL     C3    3  -0.429  -0.066   0.001
    1UNL     C4    4  -0.481   0.074  -0.037
    1UNL     N1    5  -0.378   0.178  -0.015
    1UNL     C5    6  -0.427   0.317  -0.021
    1UNL     C6    7  -0.269   0.175   0.085
    1UNL     C7    8  -0.134   0.160   0.013
    1UNL     C8    9  -0.134   0.082  -0.108
    1UNL     C9   10  -0.153  -0.059  -0.134
    1UNL     N2   11  -0.138  -0.078  -0.270
    1UNL    C10   12  -0.111   0.043  -0.331
    1UNL    C11   13  -0.087   0.078  -0.463
    1UNL    C12   14  -0.048   0.200  -0.490
    1UNL    C13   15  -0.031   0.305  -0.399
    1UNL    C14   16  -0.057   0.274  -0.268
    1UNL    C15   17  -0.098   0.144  -0.233
    1UNL    C16   18  -0.175  -0.185  -0.053
    1UNL    C17   19  -0.058  -0.273  -0.060
    1UNL    C18   20  -0.066  -0.412  -0.081
    1UNL     O1   21  -0.198  -0.457  -0.110
    1UNL    C19   22  -0.203  -0.586  -0.159
    1UNL    C20   23   0.051  -0.492  -0.087
    1UNL    C21   24   0.174  -0.440  -0.072
    1UNL    C22   25   0.190  -0.303  -0.044
    1UNL    C23   26   0.307  -0.217  -0.021
    1UNL    C24   27   0.259  -0.092  -0.016
    1UNL     N3   28   0.122  -0.095  -0.020
    1UNL    C25   29   0.072  -0.222  -0.039
    1UNL    C26   30   0.329   0.037   0.029
    1UNL    C27   31   0.264   0.070   0.165
    1UNL     O2   32   0.330   0.039   0.261
    1UNL     O3   33   0.138   0.114   0.162
    1UNL    C28   34   0.096   0.129   0.292
    1UNL    C29   35   0.303   0.140  -0.091
    1UNL    C30   36   0.437   0.197  -0.148
    1UNL    C31   37   0.523   0.261  -0.035
    1UNL    C32   38   0.561   0.161   0.063
    1UNL    C33   39   0.540   0.227   0.200
    1UNL    C34   40   0.645   0.335   0.233
    1UNL    C35   41   0.486   0.022   0.036
    1UNL     N4   42   0.539  -0.028  -0.092
    1UNL    C36   43   0.529  -0.173  -0.128
    1UNL    C37   44   0.454  -0.264  -0.027
    1UNL    C38   45   0.515   0.079  -0.205
    1UNL    C39   46  -0.192  -0.147   0.095
    1UNL    C40   47  -0.329  -0.069   0.122
    1UNL    C41   48  -0.296   0.068   0.189
    1UNL    C42   49  -0.410   0.100   0.278
    1UNL     O4   50  -0.471   0.207   0.272
    1UNL     O5   51  -0.434   0.010   0.375
    1UNL    C43   52  -0.530   0.062   0.462
    1UNL     H1   53  -0.730  -0.186   0.148
    1UNL     H2   54  -0.735  -0.038   0.045
    1UNL     H3   55  -0.624  -0.061   0.184
    1UNL     H4   56  -0.602  -0.191  -0.079
    1UNL     H5   57  -0.511  -0.248   0.079
    1UNL     H6   58  -0.368  -0.095  -0.091
    1UNL     H7   59  -0.525   0.072  -0.129
    1UNL     H8   60  -0.566   0.095   0.028
    1UNL     H9   61  -0.486   0.327  -0.105
    1UNL    H10   62  -0.340   0.388  -0.038
    1UNL    H11   63  -0.471   0.350   0.077
    1UNL    H12   64  -0.274   0.271   0.143
    1UNL    H13   65  -0.088   0.261   0.007
    1UNL    H14   66  -0.066   0.112   0.085
    1UNL    H15   67  -0.190  -0.158  -0.313
    1UNL    H16   68  -0.093   0.002  -0.545
    1UNL    H17   69  -0.011   0.219  -0.591
    1UNL    H18   70  -0.018   0.408  -0.430
    1UNL    H19   71  -0.043   0.352  -0.197
    1UNL    H20   72  -0.261  -0.246  -0.094
    1UNL    H21   73  -0.152  -0.593  -0.251
    1UNL    H22   74  -0.174  -0.653  -0.081
    1UNL    H23   75  -0.310  -0.603  -0.182
    1UNL    H24   76   0.040  -0.597  -0.120
    1UNL    H25   77   0.260  -0.499  -0.080
    1UNL    H26   78   0.056  -0.016  -0.003
    1UNL    H27   79   0.153   0.206   0.345
    1UNL    H28   80  -0.012   0.158   0.294
    1UNL    H29   81   0.120   0.036   0.343
    1UNL    H30   82   0.249   0.094  -0.178
    1UNL    H31   83   0.235   0.215  -0.053
    1UNL    H32   84   0.424   0.278  -0.236
    1UNL    H33   85   0.608   0.327  -0.084
    1UNL    H34   86   0.459   0.333   0.012
    1UNL    H35   87   0.663   0.133   0.053
    1UNL    H36   88   0.533   0.149   0.281
    1UNL    H37   89   0.437   0.273   0.198
    1UNL    H38   90   0.662   0.412   0.159
    1UNL    H39   91   0.626   0.376   0.335
    1UNL    H40   92   0.743   0.294   0.242
    1UNL    H41   93   0.520  -0.048   0.121
    1UNL    H42   94   0.491  -0.184  -0.235
    1UNL    H43   95   0.625  -0.217  -0.154
    1UNL    H44   96   0.459  -0.373  -0.042
    1UNL    H45   97   0.503  -0.237   0.065
    1UNL    H46   98   0.612   0.119  -0.239
    1UNL    H47   99   0.467   0.026  -0.291
    1UNL    H48  100  -0.181  -0.241   0.154
    1UNL    H49  101  -0.100  -0.090   0.117
    1UNL    H50  102  -0.386  -0.136   0.199
    1UNL    H51  103  -0.214   0.062   0.262
    1UNL    H52  104  -0.602   0.120   0.408
    1UNL    H53  105  -0.572  -0.020   0.528
    1UNL    H54  106  -0.471   0.128   0.524
   0.00000   0.00000   0.00000   0.00000   0.00000   0.00000   0.00000   0.00000   0.00000
Generated with MDTraj, t= 81.0
 106
    1UNL     C1    1  -0.660  -0.119   0.131
    1UNL     C2    2  -0.566  -0.142   0.012
    1UNL     C3    3  -0.446  -0.050   0.005
    1UNL     C4    4  -0.501   0.095  -0.008
    1UNL     N1    5  -0.381   0.181  -0.028
    1UNL     C5    6  -0.417   0.328  -0.042
    1UNL     C6    7  -0.274   0.175   0.083
    1UNL     C7    8  -0.137   0.148   0.023
    1UNL     C8    9  -0.139   0.062  -0.105
    1UNL     C9   10  -0.160  -0.066  -0.145
    1UNL     N2   11  -0.144  -0.083  -0.284
    1UNL    C10   12  -0.096   0.034  -0.331
    1UNL    C11   13  -0.066   0.069  -0.469
    1UNL    C12   14  -0.047   0.201  -0.499
    1UNL    C13   15  -0.043   0.293  -0.398
    1UNL    C14   16  -0.081   0.262  -0.270
    1UNL    C15   17  -0.109   0.133  -0.233
    1UNL    C16   18  -0.165  -0.188  -0.057
    1UNL    C17   19  -0.044  -0.275  -0.056
    1UNL    C18   20  -0.052  -0.409  -0.093
    1UNL     O1   21  -0.176  -0.461  -0.134
    1UNL    C19   22  -0.170  -0.569  -0.229
    1UNL    C20   23   0.062  -0.497  -0.087
    1UNL    C21   24   0.188  -0.446  -0.069
    1UNL    C22   25   0.201  -0.308  -0.042
    1UNL    C23   26   0.314  -0.225  -0.014
    1UNL    C24   27   0.261  -0.095   0.013
    1UNL     N3   28   0.128  -0.101  -0.016
    1UNL    C25   29   0.089  -0.227  -0.036
    1UNL    C26   30   0.335   0.033   0.042
    1UNL    C27   31   0.283   0.079   0.173
    1UNL     O2   32   0.346   0.030   0.266
    1UNL     O3   33   0.160   0.150   0.174
    1UNL    C28   34   0.120   0.158   0.312
    1UNL    C29   35   0.295   0.128  -0.071
    1UNL    C30   36   0.415   0.183  -0.150
    1UNL    C31   37   0.509   0.255  -0.047
    1UNL    C32   38   0.569   0.161   0.057
    1UNL    C33   39   0.556   0.212   0.207
    1UNL    C34   40   0.612   0.344   0.236
    1UNL    C35   41   0.494   0.018   0.033
    1UNL     N4   42   0.531  -0.034  -0.104
    1UNL    C36   43   0.534  -0.180  -0.130
    1UNL    C37   44   0.458  -0.264  -0.028
    1UNL    C38   45   0.481   0.060  -0.216
    1UNL    C39   46  -0.210  -0.148   0.089
    1UNL    C40   47  -0.351  -0.070   0.123
    1UNL    C41   48  -0.312   0.070   0.191
    1UNL    C42   49  -0.421   0.115   0.286
    1UNL     O4   50  -0.491   0.216   0.275
    1UNL     O5   51  -0.435   0.027   0.386
    1UNL    C43   52  -0.535   0.076   0.476
    1UNL     H1   53  -0.745  -0.185   0.132
    1UNL     H2   54  -0.696  -0.016   0.131
    1UNL     H3   55  -0.610  -0.141   0.228
    1UNL     H4   56  -0.626  -0.112  -0.074
    1UNL     H5   57  -0.541  -0.250   0.023
    1UNL     H6   58  -0.391  -0.065  -0.095
    1UNL     H7   59  -0.568   0.103  -0.086
    1UNL     H8   60  -0.567   0.121   0.073
    1UNL     H9   61  -0.476   0.348  -0.131
    1UNL    H10   62  -0.326   0.395  -0.049
    1UNL    H11   63  -0.463   0.358   0.051
    1UNL    H12   64  -0.278   0.273   0.135
    1UNL    H13   65  -0.096   0.240  -0.018
    1UNL    H14   66  -0.055   0.114   0.090
    1UNL    H15   67  -0.109  -0.173  -0.322
    1UNL    H16   68  -0.066  -0.006  -0.545
    1UNL    H17   69  -0.026   0.232  -0.600
    1UNL    H18   70  -0.029   0.397  -0.425
    1UNL    H19   71  -0.097   0.347  -0.204
    1UNL    H20   72  -0.252  -0.254  -0.090
    1UNL    H21   73  -0.094  -0.558  -0.294
    1UNL    H22   74  -0.173  -0.657  -0.172
    1UNL    H23   75  -0.261  -0.563  -0.292
    1UNL    H24   76   0.042  -0.601  -0.101
    1UNL    H25   77   0.281  -0.506  -0.081
    1UNL    H26   78   0.067  -0.022   0.019
    1UNL    H27   79   0.202   0.194   0.376
    1UNL    H28   80   0.030   0.220   0.325
    1UNL    H29   81   0.101   0.055   0.340
    1UNL    H30   82   0.227   0.070  -0.130
    1UNL    H31   83   0.229   0.214  -0.042
    1UNL    H32   84   0.365   0.263  -0.224
    1UNL    H33   85   0.589   0.309  -0.108
    1UNL    H34   86   0.448   0.334  -0.002
    1UNL    H35   87   0.673   0.142   0.045
    1UNL    H36   88   0.590   0.135   0.283
    1UNL    H37   89   0.447   0.211   0.223
    1UNL    H38   90   0.556   0.427   0.191
    1UNL    H39   91   0.617   0.345   0.344
    1UNL    H40   92   0.713   0.353   0.200
    1UNL    H41   93   0.529  -0.067   0.105
    1UNL    H42   94   0.504  -0.206  -0.237
    1UNL    H43   95   0.638  -0.210  -0.146
    1UNL    H44   96   0.451  -0.367  -0.058
    1UNL    H45   97   0.495  -0.263   0.075
    1UNL    H46   98   0.564   0.074  -0.288
    1UNL    H47   99   0.398   0.006  -0.269
    1UNL    H48  100  -0.212  -0.246   0.143
    1UNL    H49  101  -0.126  -0.088   0.130
    1UNL    H50  102  -0.402  -0.143   0.197
    1UNL    H51  103  -0.228   0.045   0.254
    1UNL    H52  104  -0.569   0.168   0.434
    1UNL    H53  105  -0.616  -0.002   0.496
    1UNL    H54  106  -0.487   0.092   0.573
   0.00000   0.00000   0.00000   0.00000   0.00000   0.00000   0.00000   0.00000   0.00000
Generated with MDTraj, t= 82.0
 106
    1UNL     C1    1  -0.635  -0.156   0.138
    1UNL     C2    2  -0.567  -0.153   0.009
    1UNL     C3    3  -0.444  -0.060   0.007
    1UNL     C4    4  -0.474   0.092  -0.005
    1UNL     N1    5  -0.358   0.172  -0.031
    1UNL     C5    6  -0.398   0.309  -0.065
    1UNL     C6    7  -0.263   0.160   0.081
    1UNL     C7    8  -0.123   0.149   0.025
    1UNL     C8    9  -0.132   0.076  -0.107
    1UNL     C9   10  -0.135  -0.063  -0.132
    1UNL     N2   11  -0.108  -0.092  -0.263
    1UNL    C10   12  -0.095   0.028  -0.332
    1UNL    C11   13  -0.075   0.063  -0.469
    1UNL    C12   14  -0.051   0.193  -0.498
    1UNL    C13   15  -0.071   0.297  -0.408
    1UNL    C14   16  -0.085   0.268  -0.271
    1UNL    C15   17  -0.105   0.137  -0.238
    1UNL    C16   18  -0.173  -0.189  -0.046
    1UNL    C17   19  -0.054  -0.282  -0.046
    1UNL    C18   20  -0.057  -0.412  -0.108
    1UNL     O1   21  -0.183  -0.453  -0.152
    1UNL    C19   22  -0.190  -0.533  -0.269
    1UNL    C20   23   0.064  -0.490  -0.116
    1UNL    C21   24   0.181  -0.433  -0.087
    1UNL    C22   25   0.185  -0.302  -0.042
    1UNL    C23   26   0.304  -0.225  -0.016
    1UNL    C24   27   0.256  -0.100   0.021
    1UNL     N3   28   0.121  -0.108   0.034
    1UNL    C25   29   0.070  -0.227  -0.016
    1UNL    C26   30   0.326   0.036   0.051
    1UNL    C27   31   0.274   0.080   0.192
    1UNL     O2   32   0.321   0.020   0.287
    1UNL     O3   33   0.180   0.172   0.196
    1UNL    C28   34   0.151   0.207   0.331
    1UNL    C29   35   0.285   0.142  -0.059
    1UNL    C30   36   0.401   0.179  -0.153
    1UNL    C31   37   0.520   0.244  -0.067
    1UNL    C32   38   0.559   0.158   0.054
    1UNL    C33   39   0.547   0.234   0.191
    1UNL    C34   40   0.650   0.353   0.204
    1UNL    C35   41   0.488   0.018   0.043
    1UNL     N4   42   0.524  -0.031  -0.094
    1UNL    C36   43   0.530  -0.174  -0.120
    1UNL    C37   44   0.447  -0.269  -0.027
    1UNL    C38   45   0.457   0.049  -0.210
    1UNL    C39   46  -0.246  -0.186   0.091
    1UNL    C40   47  -0.354  -0.081   0.127
    1UNL    C41   48  -0.303   0.055   0.190
    1UNL    C42   49  -0.413   0.114   0.280
    1UNL     O4   50  -0.477   0.214   0.253
    1UNL     O5   51  -0.438   0.033   0.389
    1UNL    C43   52  -0.537   0.095   0.465
    1UNL     H1   53  -0.734  -0.196   0.140
    1UNL     H2   54  -0.648  -0.064   0.189
    1UNL     H3   55  -0.585  -0.228   0.211
    1UNL     H4   56  -0.638  -0.114  -0.062
    1UNL     H5   57  -0.527  -0.255  -0.015
    1UNL     H6   58  -0.387  -0.082  -0.092
    1UNL     H7   59  -0.551   0.112  -0.073
    1UNL     H8   60  -0.526   0.127   0.082
    1UNL     H9   61  -0.465   0.304  -0.158
    1UNL    H10   62  -0.312   0.372  -0.090
    1UNL    H11   63  -0.442   0.350   0.022
    1UNL    H12   64  -0.274   0.256   0.132
    1UNL    H13   65  -0.077   0.243  -0.006
    1UNL    H14   66  -0.049   0.103   0.094
    1UNL    H15   67  -0.145  -0.174  -0.313
    1UNL    H16   68  -0.049  -0.017  -0.537
    1UNL    H17   69  -0.023   0.228  -0.595
    1UNL    H18   70  -0.058   0.399  -0.435
    1UNL    H19   71  -0.107   0.346  -0.200
    1UNL    H20   72  -0.257  -0.238  -0.107
    1UNL    H21   73  -0.161  -0.484  -0.353
    1UNL    H22   74  -0.148  -0.625  -0.249
    1UNL    H23   75  -0.298  -0.549  -0.286
    1UNL    H24   76   0.065  -0.595  -0.141
    1UNL    H25   77   0.272  -0.479  -0.119
    1UNL    H26   78   0.062  -0.027   0.035
    1UNL    H27   79   0.240   0.215   0.396
    1UNL    H28   80   0.087   0.296   0.329
    1UNL    H29   81   0.085   0.128   0.370
    1UNL    H30   82   0.207   0.109  -0.120
    1UNL    H31   83   0.236   0.228  -0.002
    1UNL    H32   84   0.371   0.252  -0.243
    1UNL    H33   85   0.602   0.256  -0.137
    1UNL    H34   86   0.496   0.346  -0.028
    1UNL    H35   87   0.665   0.135   0.055
    1UNL    H36   88   0.551   0.162   0.279
    1UNL    H37   89   0.448   0.276   0.202
    1UNL    H38   90   0.642   0.424   0.118
    1UNL    H39   91   0.640   0.394   0.300
    1UNL    H40   92   0.750   0.312   0.197
    1UNL    H41   93   0.520  -0.069   0.115
    1UNL    H42   94   0.504  -0.187  -0.229
    1UNL    H43   95   0.632  -0.214  -0.127
    1UNL    H44   96   0.446  -0.372  -0.056
    1UNL    H45   97   0.488  -0.273   0.075
    1UNL    H46   98   0.525   0.075  -0.293
    1UNL    H47   99   0.381  -0.017  -0.259
    1UNL    H48  100  -0.297  -0.286   0.099
    1UNL    H49  101  -0.169  -0.176   0.174
    1UNL    H50  102  -0.417  -0.135   0.208
    1UNL    H51  103  -0.218   0.021   0.248
    1UNL    H52  104  -0.531   0.199   0.439
    1UNL    H53  105  -0.636   0.047   0.435
    1UNL    H54  106  -0.527   0.073   0.572
   0.00000   0.00000   0.00000   0.00000   0.00000   0.00000   0.00000   0.00000   0.00000
Generated with MDTraj, t= 83.0
 106
    1UNL     C1    1  -0.647  -0.154   0.118
    1UNL     C2    2  -0.536  -0.188   0.008
    1UNL     C3    3  -0.423  -0.073   0.003
    1UNL     C4    4  -0.472   0.065  -0.027
    1UNL     N1    5  -0.361   0.158  -0.052
    1UNL     C5    6  -0.408   0.296  -0.092
    1UNL     C6    7  -0.269   0.172   0.069
    1UNL     C7    8  -0.122   0.160   0.020
    1UNL     C8    9  -0.116   0.065  -0.099
    1UNL     C9   10  -0.147  -0.070  -0.127
    1UNL     N2   11  -0.127  -0.092  -0.265
    1UNL    C10   12  -0.102   0.027  -0.325
    1UNL    C11   13  -0.094   0.072  -0.459
    1UNL    C12   14  -0.080   0.204  -0.493
    1UNL    C13   15  -0.047   0.295  -0.390
    1UNL    C14   16  -0.060   0.258  -0.263
    1UNL    C15   17  -0.089   0.125  -0.229
    1UNL    C16   18  -0.165  -0.193  -0.037
    1UNL    C17   19  -0.045  -0.279  -0.056
    1UNL    C18   20  -0.062  -0.399  -0.123
    1UNL     O1   21  -0.194  -0.447  -0.151
    1UNL    C19   22  -0.214  -0.494  -0.282
    1UNL    C20   23   0.057  -0.474  -0.138
    1UNL    C21   24   0.182  -0.430  -0.107
    1UNL    C22   25   0.199  -0.304  -0.046
    1UNL    C23   26   0.305  -0.218   0.003
    1UNL    C24   27   0.247  -0.100   0.038
    1UNL     N3   28   0.112  -0.105   0.018
    1UNL    C25   29   0.079  -0.226  -0.032
    1UNL    C26   30   0.317   0.029   0.059
    1UNL    C27   31   0.289   0.080   0.198
    1UNL     O2   32   0.335   0.023   0.296
    1UNL     O3   33   0.208   0.190   0.201
    1UNL    C28   34   0.181   0.225   0.339
    1UNL    C29   35   0.262   0.124  -0.061
    1UNL    C30   36   0.375   0.163  -0.157
    1UNL    C31   37   0.481   0.249  -0.080
    1UNL    C32   38   0.538   0.166   0.036
    1UNL    C33   39   0.532   0.229   0.182
    1UNL    C34   40   0.654   0.324   0.205
    1UNL    C35   41   0.477   0.025   0.039
    1UNL     N4   42   0.510  -0.044  -0.088
    1UNL    C36   43   0.533  -0.189  -0.093
    1UNL    C37   44   0.448  -0.258   0.014
    1UNL    C38   45   0.446   0.034  -0.204
    1UNL    C39   46  -0.199  -0.156   0.109
    1UNL    C40   47  -0.326  -0.071   0.131
    1UNL    C41   48  -0.304   0.073   0.187
    1UNL    C42   49  -0.422   0.116   0.280
    1UNL     O4   50  -0.475   0.222   0.268
    1UNL     O5   51  -0.445   0.029   0.383
    1UNL    C43   52  -0.529   0.083   0.482
    1UNL     H1   53  -0.716  -0.233   0.142
    1UNL     H2   54  -0.706  -0.068   0.099
    1UNL     H3   55  -0.590  -0.140   0.217
    1UNL     H4   56  -0.584  -0.198  -0.087
    1UNL     H5   57  -0.482  -0.281   0.037
    1UNL     H6   58  -0.357  -0.094  -0.088
    1UNL     H7   59  -0.542   0.067  -0.106
    1UNL     H8   60  -0.535   0.100   0.050
    1UNL     H9   61  -0.462   0.278  -0.195
    1UNL    H10   62  -0.338   0.374  -0.103
    1UNL    H11   63  -0.476   0.325  -0.013
    1UNL    H12   64  -0.287   0.273   0.103
    1UNL    H13   65  -0.090   0.262  -0.000
    1UNL    H14   66  -0.055   0.127   0.100
    1UNL    H15   67  -0.079  -0.178  -0.295
    1UNL    H16   68  -0.097  -0.006  -0.535
    1UNL    H17   69  -0.057   0.218  -0.599
    1UNL    H18   70  -0.038   0.401  -0.412
    1UNL    H19   71  -0.040   0.325  -0.183
    1UNL    H20   72  -0.261  -0.245  -0.069
    1UNL    H21   73  -0.176  -0.428  -0.352
    1UNL    H22   74  -0.185  -0.594  -0.288
    1UNL    H23   75  -0.320  -0.492  -0.302
    1UNL    H24   76   0.051  -0.580  -0.166
    1UNL    H25   77   0.275  -0.481  -0.126
    1UNL    H26   78   0.055  -0.023  -0.002
    1UNL    H27   79   0.269   0.270   0.390
    1UNL    H28   80   0.091   0.285   0.334
    1UNL    H29   81   0.146   0.136   0.393
    1UNL    H30   82   0.185   0.076  -0.109
    1UNL    H31   83   0.212   0.220  -0.026
    1UNL    H32   84   0.329   0.229  -0.244
    1UNL    H33   85   0.562   0.283  -0.137
    1UNL    H34   86   0.425   0.341  -0.043
    1UNL    H35   87   0.646   0.164   0.016
    1UNL    H36   88   0.532   0.150   0.263
    1UNL    H37   89   0.438   0.280   0.197
    1UNL    H38   90   0.668   0.392   0.117
    1UNL    H39   91   0.648   0.375   0.295
    1UNL    H40   92   0.752   0.274   0.208
    1UNL    H41   93   0.530  -0.038   0.123
    1UNL    H42   94   0.520  -0.240  -0.192
    1UNL    H43   95   0.640  -0.203  -0.069
    1UNL    H44   96   0.462  -0.361   0.003
    1UNL    H45   97   0.485  -0.238   0.117
    1UNL    H46   98   0.521   0.054  -0.281
    1UNL    H47   99   0.373  -0.032  -0.258
    1UNL    H48  100  -0.207  -0.255   0.161
    1UNL    H49  101  -0.108  -0.105   0.155
    1UNL    H50  102  -0.393  -0.118   0.212
    1UNL    H51  103  -0.216   0.057   0.246
    1UNL    H52  104  -0.471   0.119   0.562
    1UNL    H53  105  -0.598   0.163   0.442
    1UNL    H54  106  -0.601   0.002   0.506
   0.00000   0.00000   0.00000   0.00000   0.00000   0.00000   0.00000   0.00000   0.00000
Generated with MDTraj, t= 84.0
 106
    1UNL     C1    1  -0.676  -0.157   0.110
    1UNL     C2    2  -0.554  -0.181   0.024
    1UNL     C3    3  -0.446  -0.077   0.014
    1UNL     C4    4  -0.492   0.066  -0.004
    1UNL     N1    5  -0.383   0.154  -0.030
    1UNL     C5    6  -0.407   0.284  -0.105
    1UNL     C6    7  -0.273   0.175   0.078
    1UNL     C7    8  -0.131   0.172   0.008
    1UNL     C8    9  -0.133   0.085  -0.115
    1UNL     C9   10  -0.153  -0.055  -0.128
    1UNL     N2   11  -0.162  -0.070  -0.268
    1UNL    C10   12  -0.129   0.048  -0.340
    1UNL    C11   13  -0.104   0.077  -0.471
    1UNL    C12   14  -0.056   0.200  -0.500
    1UNL    C13   15  -0.029   0.301  -0.398
    1UNL    C14   16  -0.051   0.272  -0.266
    1UNL    C15   17  -0.111   0.147  -0.241
    1UNL    C16   18  -0.163  -0.180  -0.042
    1UNL    C17   19  -0.043  -0.276  -0.044
    1UNL    C18   20  -0.055  -0.398  -0.105
    1UNL     O1   21  -0.184  -0.440  -0.157
    1UNL    C19   22  -0.177  -0.477  -0.295
    1UNL    C20   23   0.061  -0.481  -0.127
    1UNL    C21   24   0.186  -0.446  -0.087
    1UNL    C22   25   0.203  -0.321  -0.022
    1UNL    C23   26   0.319  -0.231   0.005
    1UNL    C24   27   0.265  -0.110   0.053
    1UNL     N3   28   0.129  -0.122   0.055
    1UNL    C25   29   0.089  -0.241  -0.005
    1UNL    C26   30   0.327   0.023   0.067
    1UNL    C27   31   0.291   0.080   0.203
    1UNL     O2   32   0.342   0.035   0.304
    1UNL     O3   33   0.210   0.186   0.200
    1UNL    C28   34   0.191   0.233   0.336
    1UNL    C29   35   0.276   0.121  -0.053
    1UNL    C30   36   0.383   0.152  -0.155
    1UNL    C31   37   0.495   0.237  -0.081
    1UNL    C32   38   0.555   0.154   0.043
    1UNL    C33   39   0.538   0.235   0.170
    1UNL    C34   40   0.633   0.344   0.186
    1UNL    C35   41   0.477   0.016   0.049
    1UNL     N4   42   0.500  -0.047  -0.087
    1UNL    C36   43   0.534  -0.181  -0.122
    1UNL    C37   44   0.460  -0.274  -0.022
    1UNL    C38   45   0.444   0.026  -0.208
    1UNL    C39   46  -0.194  -0.150   0.101
    1UNL    C40   47  -0.328  -0.077   0.128
    1UNL    C41   48  -0.296   0.065   0.190
    1UNL    C42   49  -0.415   0.105   0.280
    1UNL     O4   50  -0.458   0.215   0.268
    1UNL     O5   51  -0.454   0.014   0.381
    1UNL    C43   52  -0.553   0.081   0.456
    1UNL     H1   53  -0.741  -0.242   0.101
    1UNL     H2   54  -0.730  -0.074   0.069
    1UNL     H3   55  -0.649  -0.149   0.219
    1UNL     H4   56  -0.593  -0.181  -0.077
    1UNL     H5   57  -0.510  -0.281   0.051
    1UNL     H6   58  -0.387  -0.096  -0.080
    1UNL     H7   59  -0.577   0.077  -0.067
    1UNL     H8   60  -0.538   0.099   0.084
    1UNL     H9   61  -0.468   0.266  -0.196
    1UNL    H10   62  -0.315   0.327  -0.137
    1UNL    H11   63  -0.452   0.354  -0.031
    1UNL    H12   64  -0.282   0.271   0.126
    1UNL    H13   65  -0.101   0.272  -0.017
    1UNL    H14   66  -0.063   0.144   0.086
    1UNL    H15   67  -0.217  -0.145  -0.310
    1UNL    H16   68  -0.101  -0.005  -0.537
    1UNL    H17   69  -0.037   0.233  -0.600
    1UNL    H18   70   0.005   0.399  -0.426
    1UNL    H19   71  -0.038   0.334  -0.179
    1UNL    H20   72  -0.252  -0.240  -0.077
    1UNL    H21   73  -0.093  -0.434  -0.344
    1UNL    H22   74  -0.189  -0.583  -0.302
    1UNL    H23   75  -0.256  -0.434  -0.347
    1UNL    H24   76   0.045  -0.579  -0.163
    1UNL    H25   77   0.281  -0.502  -0.099
    1UNL    H26   78   0.073  -0.041   0.094
    1UNL    H27   79   0.289   0.260   0.381
    1UNL    H28   80   0.118   0.311   0.329
    1UNL    H29   81   0.139   0.159   0.402
    1UNL    H30   82   0.189   0.085  -0.101
    1UNL    H31   83   0.244   0.214   0.001
    1UNL    H32   84   0.341   0.207  -0.249
    1UNL    H33   85   0.564   0.265  -0.153
    1UNL    H34   86   0.448   0.331  -0.038
    1UNL    H35   87   0.663   0.144   0.023
    1UNL    H36   88   0.542   0.163   0.257
    1UNL    H37   89   0.443   0.284   0.171
    1UNL    H38   90   0.633   0.413   0.100
    1UNL    H39   91   0.618   0.394   0.279
    1UNL    H40   92   0.739   0.314   0.187
    1UNL    H41   93   0.525  -0.061   0.120
    1UNL    H42   94   0.506  -0.201  -0.227
    1UNL    H43   95   0.643  -0.191  -0.109
    1UNL    H44   96   0.462  -0.372  -0.057
    1UNL    H45   97   0.522  -0.286   0.068
    1UNL    H46   98   0.518   0.043  -0.288
    1UNL    H47   99   0.365  -0.036  -0.255
    1UNL    H48  100  -0.188  -0.247   0.157
    1UNL    H49  101  -0.108  -0.086   0.137
    1UNL    H50  102  -0.388  -0.129   0.211
    1UNL    H51  103  -0.211   0.059   0.251
    1UNL    H52  104  -0.513   0.162   0.510
    1UNL    H53  105  -0.639   0.113   0.392
    1UNL    H54  106  -0.604   0.004   0.515
   0.00000   0.00000   0.00000   0.00000   0.00000   0.00000   0.00000   0.00000   0.00000
Generated with MDTraj, t= 85.0
 106
    1UNL     C1    1  -0.647  -0.143   0.158
    1UNL     C2    2  -0.570  -0.172   0.024
    1UNL     C3    3  -0.453  -0.072   0.002
    1UNL     C4    4  -0.493   0.077  -0.020
    1UNL     N1    5  -0.372   0.162  -0.038
    1UNL     C5    6  -0.416   0.295  -0.089
    1UNL     C6    7  -0.280   0.165   0.082
    1UNL     C7    8  -0.133   0.136   0.039
    1UNL     C8    9  -0.123   0.067  -0.101
    1UNL     C9   10  -0.146  -0.067  -0.132
    1UNL     N2   11  -0.138  -0.086  -0.271
    1UNL    C10   12  -0.092   0.032  -0.327
    1UNL    C11   13  -0.076   0.059  -0.461
    1UNL    C12   14  -0.067   0.196  -0.499
    1UNL    C13   15  -0.062   0.298  -0.395
    1UNL    C14   16  -0.064   0.269  -0.261
    1UNL    C15   17  -0.089   0.128  -0.228
    1UNL    C16   18  -0.180  -0.182  -0.044
    1UNL    C17   19  -0.053  -0.266  -0.047
    1UNL    C18   20  -0.063  -0.389  -0.116
    1UNL     O1   21  -0.181  -0.418  -0.191
    1UNL    C19   22  -0.154  -0.496  -0.306
    1UNL    C20   23   0.050  -0.472  -0.120
    1UNL    C21   24   0.174  -0.436  -0.074
    1UNL    C22   25   0.187  -0.308  -0.009
    1UNL    C23   26   0.302  -0.226   0.014
    1UNL    C24   27   0.261  -0.095   0.027
    1UNL     N3   28   0.124  -0.088   0.012
    1UNL    C25   29   0.076  -0.219  -0.004
    1UNL    C26   30   0.334   0.030   0.051
    1UNL    C27   31   0.311   0.077   0.194
    1UNL     O2   32   0.371   0.033   0.290
    1UNL     O3   33   0.219   0.172   0.201
    1UNL    C28   34   0.183   0.191   0.336
    1UNL    C29   35   0.288   0.135  -0.057
    1UNL    C30   36   0.398   0.158  -0.161
    1UNL    C31   37   0.514   0.244  -0.090
    1UNL    C32   38   0.566   0.162   0.036
    1UNL    C33   39   0.567   0.230   0.173
    1UNL    C34   40   0.635   0.369   0.177
    1UNL    C35   41   0.490   0.024   0.035
    1UNL     N4   42   0.518  -0.050  -0.084
    1UNL    C36   43   0.511  -0.193  -0.101
    1UNL    C37   44   0.444  -0.265   0.014
    1UNL    C38   45   0.462   0.025  -0.210
    1UNL    C39   46  -0.231  -0.168   0.101
    1UNL    C40   47  -0.358  -0.074   0.127
    1UNL    C41   48  -0.317   0.062   0.192
    1UNL    C42   49  -0.426   0.112   0.292
    1UNL     O4   50  -0.457   0.227   0.278
    1UNL     O5   51  -0.474   0.008   0.369
    1UNL    C43   52  -0.580   0.064   0.445
    1UNL     H1   53  -0.731  -0.207   0.179
    1UNL     H2   54  -0.694  -0.044   0.155
    1UNL     H3   55  -0.586  -0.155   0.245
    1UNL     H4   56  -0.635  -0.164  -0.059
    1UNL     H5   57  -0.516  -0.271   0.018
    1UNL     H6   58  -0.378  -0.101  -0.076
    1UNL     H7   59  -0.551   0.080  -0.108
    1UNL     H8   60  -0.564   0.110   0.049
    1UNL     H9   61  -0.469   0.281  -0.176
    1UNL    H10   62  -0.338   0.371  -0.109
    1UNL    H11   63  -0.480   0.331  -0.003
    1UNL    H12   64  -0.289   0.264   0.125
    1UNL    H13   65  -0.096   0.238   0.044
    1UNL    H14   66  -0.081   0.080   0.113
    1UNL    H15   67  -0.130  -0.178  -0.313
    1UNL    H16   68  -0.087  -0.020  -0.538
    1UNL    H17   69  -0.079   0.227  -0.604
    1UNL    H18   70  -0.063   0.403  -0.427
    1UNL    H19   71  -0.075   0.341  -0.180
    1UNL    H20   72  -0.255  -0.246  -0.097
    1UNL    H21   73  -0.088  -0.439  -0.375
    1UNL    H22   74  -0.121  -0.595  -0.275
    1UNL    H23   75  -0.240  -0.505  -0.357
    1UNL    H24   76   0.040  -0.578  -0.151
    1UNL    H25   77   0.251  -0.504  -0.067
    1UNL    H26   78   0.064  -0.005   0.008
    1UNL    H27   79   0.274   0.214   0.393
    1UNL    H28   80   0.112   0.270   0.332
    1UNL    H29   81   0.128   0.105   0.385
    1UNL    H30   82   0.194   0.097  -0.097
    1UNL    H31   83   0.269   0.229  -0.009
    1UNL    H32   84   0.360   0.228  -0.244
    1UNL    H33   85   0.596   0.271  -0.148
    1UNL    H34   86   0.456   0.337  -0.064
    1UNL    H35   87   0.672   0.145   0.004
    1UNL    H36   88   0.626   0.165   0.245
    1UNL    H37   89   0.468   0.245   0.209
    1UNL    H38   90   0.583   0.440   0.115
    1UNL    H39   91   0.644   0.402   0.281
    1UNL    H40   92   0.735   0.374   0.134
    1UNL    H41   93   0.540  -0.030   0.123
    1UNL    H42   94   0.443  -0.210  -0.187
    1UNL    H43   95   0.607  -0.236  -0.126
    1UNL    H44   96   0.456  -0.370   0.014
    1UNL    H45   97   0.482  -0.233   0.111
    1UNL    H46   98   0.544   0.045  -0.279
    1UNL    H47   99   0.386  -0.038  -0.261
    1UNL    H48  100  -0.257  -0.271   0.137
    1UNL    H49  101  -0.148  -0.135   0.170
    1UNL    H50  102  -0.427  -0.123   0.200
    1UNL    H51  103  -0.232   0.043   0.247
    1UNL    H52  104  -0.598   0.166   0.425
    1UNL    H53  105  -0.672  -0.001   0.440
    1UNL    H54  106  -0.557   0.044   0.550
   0.00000   0.00000   0.00000   0.00000   0.00000   0.00000   0.00000   0.00000   0.00000
Generated with MDTraj, t= 86.0
 106
    1UNL     C1    1  -0.655  -0.122   0.153
    1UNL     C2    2  -0.573  -0.159   0.034
    1UNL     C3    3  -0.455  -0.065   0.009
    1UNL     C4    4  -0.499   0.083  -0.014
    1UNL     N1    5  -0.386   0.170  -0.019
    1UNL     C5    6  -0.421   0.303  -0.064
    1UNL     C6    7  -0.281   0.154   0.091
    1UNL     C7    8  -0.133   0.139   0.042
    1UNL     C8    9  -0.137   0.077  -0.103
    1UNL     C9   10  -0.150  -0.058  -0.134
    1UNL     N2   11  -0.114  -0.076  -0.263
    1UNL    C10   12  -0.109   0.044  -0.331
    1UNL    C11   13  -0.071   0.071  -0.459
    1UNL    C12   14  -0.041   0.208  -0.488
    1UNL    C13   15  -0.057   0.313  -0.388
    1UNL    C14   16  -0.100   0.278  -0.262
    1UNL    C15   17  -0.125   0.142  -0.230
    1UNL    C16   18  -0.170  -0.180  -0.045
    1UNL    C17   19  -0.044  -0.268  -0.051
    1UNL    C18   20  -0.050  -0.398  -0.106
    1UNL     O1   21  -0.167  -0.448  -0.168
    1UNL    C19   22  -0.148  -0.526  -0.290
    1UNL    C20   23   0.072  -0.479  -0.115
    1UNL    C21   24   0.200  -0.432  -0.087
    1UNL    C22   25   0.200  -0.306  -0.030
    1UNL    C23   26   0.313  -0.220  -0.009
    1UNL    C24   27   0.262  -0.096   0.021
    1UNL     N3   28   0.124  -0.096   0.012
    1UNL    C25   29   0.082  -0.225  -0.014
    1UNL    C26   30   0.330   0.042   0.047
    1UNL    C27   31   0.295   0.086   0.190
    1UNL     O2   32   0.363   0.051   0.283
    1UNL     O3   33   0.182   0.157   0.208
    1UNL    C28   34   0.162   0.175   0.348
    1UNL    C29   35   0.288   0.145  -0.068
    1UNL    C30   36   0.405   0.155  -0.165
    1UNL    C31   37   0.529   0.229  -0.099
    1UNL    C32   38   0.561   0.155   0.038
    1UNL    C33   39   0.569   0.229   0.171
    1UNL    C34   40   0.671   0.343   0.157
    1UNL    C35   41   0.485   0.020   0.035
    1UNL     N4   42   0.520  -0.053  -0.088
    1UNL    C36   43   0.533  -0.199  -0.100
    1UNL    C37   44   0.452  -0.266   0.010
    1UNL    C38   45   0.463   0.018  -0.211
    1UNL    C39   46  -0.217  -0.164   0.100
    1UNL    C40   47  -0.351  -0.082   0.131
    1UNL    C41   48  -0.318   0.053   0.203
    1UNL    C42   49  -0.440   0.111   0.276
    1UNL     O4   50  -0.477   0.227   0.272
    1UNL     O5   51  -0.503   0.012   0.350
    1UNL    C43   52  -0.590   0.071   0.440
    1UNL     H1   53  -0.751  -0.172   0.149
    1UNL     H2   54  -0.683  -0.013   0.156
    1UNL     H3   55  -0.608  -0.155   0.238
    1UNL     H4   56  -0.613  -0.164  -0.066
    1UNL     H5   57  -0.533  -0.261   0.057
    1UNL     H6   58  -0.387  -0.099  -0.072
    1UNL     H7   59  -0.574   0.090  -0.089
    1UNL     H8   60  -0.553   0.114   0.067
    1UNL     H9   61  -0.476   0.302  -0.152
    1UNL    H10   62  -0.324   0.352  -0.092
    1UNL    H11   63  -0.469   0.362   0.019
    1UNL    H12   64  -0.289   0.250   0.143
    1UNL    H13   65  -0.076   0.230   0.034
    1UNL    H14   66  -0.087   0.074   0.112
    1UNL    H15   67  -0.102  -0.165  -0.308
    1UNL    H16   68  -0.064   0.001  -0.537
    1UNL    H17   69   0.016   0.220  -0.578
    1UNL    H18   70  -0.044   0.416  -0.402
    1UNL    H19   71  -0.102   0.349  -0.182
    1UNL    H20   72  -0.245  -0.244  -0.095
    1UNL    H21   73  -0.050  -0.496  -0.339
    1UNL    H22   74  -0.153  -0.633  -0.265
    1UNL    H23   75  -0.221  -0.501  -0.361
    1UNL    H24   76   0.054  -0.580  -0.142
    1UNL    H25   77   0.281  -0.509  -0.079
    1UNL    H26   78   0.069  -0.015   0.007
    1UNL    H27   79   0.243   0.240   0.381
    1UNL    H28   80   0.071   0.228   0.358
    1UNL    H29   81   0.162   0.082   0.412
    1UNL    H30   82   0.198   0.104  -0.122
    1UNL    H31   83   0.264   0.236  -0.027
    1UNL    H32   84   0.366   0.208  -0.257
    1UNL    H33   85   0.603   0.218  -0.175
    1UNL    H34   86   0.507   0.332  -0.081
    1UNL    H35   87   0.668   0.125   0.017
    1UNL    H36   88   0.601   0.153   0.248
    1UNL    H37   89   0.472   0.263   0.197
    1UNL    H38   90   0.663   0.394   0.066
    1UNL    H39   91   0.669   0.413   0.246
    1UNL    H40   92   0.774   0.312   0.150
    1UNL    H41   93   0.523  -0.047   0.118
    1UNL    H42   94   0.503  -0.229  -0.201
    1UNL    H43   95   0.640  -0.218  -0.084
    1UNL    H44   96   0.447  -0.372   0.004
    1UNL    H45   97   0.478  -0.250   0.114
    1UNL    H46   98   0.548   0.028  -0.279
    1UNL    H47   99   0.382  -0.038  -0.257
    1UNL    H48  100  -0.214  -0.263   0.154
    1UNL    H49  101  -0.134  -0.110   0.152
    1UNL    H50  102  -0.419  -0.139   0.199
    1UNL    H51  103  -0.245   0.044   0.276
    1UNL    H52  104  -0.680   0.109   0.397
    1UNL    H53  105  -0.600  -0.010   0.519
    1UNL    H54  106  -0.539   0.147   0.500
   0.00000   0.00000   0.00000   0.00000   0.00000   0.00000   0.00000   0.00000   0.00000
Generated with MDTraj, t= 87.0
 106
    1UNL     C1    1  -0.669  -0.144   0.106
    1UNL     C2    2  -0.556  -0.186   0.007
    1UNL     C3    3  -0.447  -0.077  -0.002
    1UNL     C4    4  -0.509   0.066  -0.013
    1UNL     N1    5  -0.392   0.168  -0.016
    1UNL     C5    6  -0.433   0.313  -0.041
    1UNL     C6    7  -0.286   0.173   0.092
    1UNL     C7    8  -0.146   0.146   0.035
    1UNL     C8    9  -0.132   0.076  -0.100
    1UNL     C9   10  -0.145  -0.060  -0.140
    1UNL     N2   11  -0.133  -0.071  -0.272
    1UNL    C10   12  -0.093   0.057  -0.320
    1UNL    C11   13  -0.083   0.100  -0.449
    1UNL    C12   14  -0.051   0.233  -0.479
    1UNL    C13   15  -0.051   0.326  -0.372
    1UNL    C14   16  -0.072   0.286  -0.241
    1UNL    C15   17  -0.099   0.151  -0.217
    1UNL    C16   18  -0.162  -0.182  -0.052
    1UNL    C17   19  -0.043  -0.270  -0.060
    1UNL    C18   20  -0.058  -0.402  -0.100
    1UNL     O1   21  -0.188  -0.449  -0.131
    1UNL    C19   22  -0.200  -0.548  -0.234
    1UNL    C20   23   0.057  -0.484  -0.112
    1UNL    C21   24   0.184  -0.440  -0.072
    1UNL    C22   25   0.203  -0.302  -0.034
    1UNL    C23   26   0.322  -0.228  -0.004
    1UNL    C24   27   0.272  -0.105   0.030
    1UNL     N3   28   0.131  -0.100   0.028
    1UNL    C25   29   0.092  -0.219  -0.031
    1UNL    C26   30   0.349   0.028   0.056
    1UNL    C27   31   0.303   0.080   0.189
    1UNL     O2   32   0.365   0.086   0.292
    1UNL     O3   33   0.170   0.116   0.178
    1UNL    C28   34   0.123   0.182   0.297
    1UNL    C29   35   0.300   0.137  -0.050
    1UNL    C30   36   0.398   0.152  -0.165
    1UNL    C31   37   0.516   0.237  -0.104
    1UNL    C32   38   0.569   0.159   0.022
    1UNL    C33   39   0.564   0.245   0.153
    1UNL    C34   40   0.689   0.321   0.185
    1UNL    C35   41   0.506   0.018   0.036
    1UNL     N4   42   0.525  -0.042  -0.094
    1UNL    C36   43   0.552  -0.186  -0.107
    1UNL    C37   44   0.467  -0.268  -0.006
    1UNL    C38   45   0.449   0.013  -0.212
    1UNL    C39   46  -0.207  -0.145   0.094
    1UNL    C40   47  -0.350  -0.083   0.124
    1UNL    C41   48  -0.316   0.055   0.191
    1UNL    C42   49  -0.431   0.105   0.277
    1UNL     O4   50  -0.467   0.220   0.259
    1UNL     O5   51  -0.476   0.020   0.370
    1UNL    C43   52  -0.594   0.067   0.427
    1UNL     H1   53  -0.740  -0.227   0.108
    1UNL     H2   54  -0.729  -0.056   0.072
    1UNL     H3   55  -0.623  -0.136   0.200
    1UNL     H4   56  -0.595  -0.203  -0.090
    1UNL     H5   57  -0.505  -0.283   0.031
    1UNL     H6   58  -0.375  -0.096  -0.084
    1UNL     H7   59  -0.580   0.071  -0.092
    1UNL     H8   60  -0.575   0.084   0.065
    1UNL     H9   61  -0.490   0.326  -0.135
    1UNL    H10   62  -0.353   0.390  -0.048
    1UNL    H11   63  -0.497   0.338   0.042
    1UNL    H12   64  -0.293   0.273   0.139
    1UNL    H13   65  -0.100   0.239   0.016
    1UNL    H14   66  -0.079   0.094   0.099
    1UNL    H15   67  -0.146  -0.154  -0.327
    1UNL    H16   68  -0.095   0.017  -0.523
    1UNL    H17   69  -0.036   0.260  -0.584
    1UNL    H18   70  -0.014   0.425  -0.404
    1UNL    H19   71  -0.079   0.354  -0.156
    1UNL    H20   72  -0.240  -0.241  -0.103
    1UNL    H21   73  -0.176  -0.498  -0.333
    1UNL    H22   74  -0.135  -0.634  -0.214
    1UNL    H23   75  -0.305  -0.580  -0.238
    1UNL    H24   76   0.048  -0.592  -0.127
    1UNL    H25   77   0.257  -0.512  -0.050
    1UNL    H26   78   0.080  -0.023   0.068
    1UNL    H27   79   0.185   0.270   0.312
    1UNL    H28   80   0.027   0.221   0.285
    1UNL    H29   81   0.128   0.116   0.389
    1UNL    H30   82   0.198   0.106  -0.089
    1UNL    H31   83   0.292   0.229  -0.005
    1UNL    H32   84   0.348   0.206  -0.248
    1UNL    H33   85   0.592   0.237  -0.179
    1UNL    H34   86   0.480   0.329  -0.074
    1UNL    H35   87   0.678   0.129   0.007
    1UNL    H36   88   0.543   0.174   0.236
    1UNL    H37   89   0.477   0.307   0.150
    1UNL    H38   90   0.716   0.392   0.111
    1UNL    H39   91   0.684   0.358   0.294
    1UNL    H40   92   0.772   0.253   0.187
    1UNL    H41   93   0.551  -0.045   0.116
    1UNL    H42   94   0.540  -0.204  -0.216
    1UNL    H43   95   0.653  -0.206  -0.076
    1UNL    H44   96   0.470  -0.374  -0.025
    1UNL    H45   97   0.496  -0.252   0.096
    1UNL    H46   98   0.516   0.028  -0.298
    1UNL    H47   99   0.371  -0.061  -0.224
    1UNL    H48  100  -0.183  -0.233   0.161
    1UNL    H49  101  -0.129  -0.077   0.132
    1UNL    H50  102  -0.411  -0.139   0.200
    1UNL    H51  103  -0.238   0.042   0.257
    1UNL    H52  104  -0.680   0.026   0.378
    1UNL    H53  105  -0.587   0.040   0.538
    1UNL    H54  106  -0.603   0.176   0.425
   0.00000   0.00000   0.00000   0.00000   0.00000   0.00000   0.00000   0.00000   0.00000
Generated with MDTraj, t= 88.0
 106
    1UNL     C1    1  -0.626  -0.188   0.069
    1UNL     C2    2  -0.518  -0.189  -0.036
    1UNL     C3    3  -0.419  -0.070  -0.025
    1UNL     C4    4  -0.481   0.073  -0.034
    1UNL     N1    5  -0.384   0.175  -0.021
    1UNL     C5    6  -0.425   0.316  -0.043
    1UNL     C6    7  -0.281   0.168   0.090
    1UNL     C7    8  -0.129   0.155   0.054
    1UNL     C8    9  -0.114   0.089  -0.082
    1UNL     C9   10  -0.137  -0.043  -0.118
    1UNL     N2   11  -0.130  -0.051  -0.257
    1UNL    C10   12  -0.087   0.067  -0.310
    1UNL    C11   13  -0.084   0.104  -0.448
    1UNL    C12   14  -0.063   0.236  -0.478
    1UNL    C13   15  -0.048   0.328  -0.370
    1UNL    C14   16  -0.063   0.298  -0.240
    1UNL    C15   17  -0.078   0.159  -0.206
    1UNL    C16   18  -0.163  -0.173  -0.044
    1UNL    C17   19  -0.051  -0.269  -0.054
    1UNL    C18   20  -0.069  -0.399  -0.080
    1UNL     O1   21  -0.202  -0.442  -0.093
    1UNL    C19   22  -0.225  -0.563  -0.161
    1UNL    C20   23   0.043  -0.481  -0.099
    1UNL    C21   24   0.174  -0.435  -0.078
    1UNL    C22   25   0.193  -0.303  -0.035
    1UNL    C23   26   0.308  -0.218  -0.005
    1UNL    C24   27   0.257  -0.093   0.021
    1UNL     N3   28   0.118  -0.097   0.007
    1UNL    C25   29   0.079  -0.218  -0.033
    1UNL    C26   30   0.329   0.036   0.031
    1UNL    C27   31   0.278   0.099   0.160
    1UNL     O2   32   0.354   0.099   0.254
    1UNL     O3   33   0.147   0.131   0.175
    1UNL    C28   34   0.122   0.156   0.311
    1UNL    C29   35   0.297   0.132  -0.092
    1UNL    C30   36   0.427   0.161  -0.174
    1UNL    C31   37   0.522   0.241  -0.077
    1UNL    C32   38   0.572   0.142   0.032
    1UNL    C33   39   0.572   0.219   0.169
    1UNL    C34   40   0.677   0.329   0.171
    1UNL    C35   41   0.485   0.019   0.034
    1UNL     N4   42   0.515  -0.055  -0.091
    1UNL    C36   43   0.537  -0.204  -0.111
    1UNL    C37   44   0.445  -0.267  -0.006
    1UNL    C38   45   0.492   0.030  -0.222
    1UNL    C39   46  -0.201  -0.153   0.104
    1UNL    C40   47  -0.343  -0.086   0.113
    1UNL    C41   48  -0.321   0.051   0.184
    1UNL    C42   49  -0.437   0.095   0.276
    1UNL     O4   50  -0.496   0.203   0.262
    1UNL     O5   51  -0.477   0.000   0.368
    1UNL    C43   52  -0.571   0.052   0.457
    1UNL     H1   53  -0.695  -0.268   0.051
    1UNL     H2   54  -0.689  -0.098   0.064
    1UNL     H3   55  -0.581  -0.208   0.166
    1UNL     H4   56  -0.564  -0.181  -0.133
    1UNL     H5   57  -0.460  -0.284  -0.045
    1UNL     H6   58  -0.352  -0.067  -0.110
    1UNL     H7   59  -0.534   0.091  -0.122
    1UNL     H8   60  -0.561   0.083   0.034
    1UNL     H9   61  -0.493   0.325  -0.138
    1UNL    H10   62  -0.336   0.372  -0.072
    1UNL    H11   63  -0.473   0.360   0.040
    1UNL    H12   64  -0.288   0.269   0.138
    1UNL    H13   65  -0.071   0.242   0.048
    1UNL    H14   66  -0.081   0.094   0.128
    1UNL    H15   67  -0.134  -0.137  -0.309
    1UNL    H16   68  -0.092   0.026  -0.516
    1UNL    H17   69  -0.059   0.258  -0.581
    1UNL    H18   70  -0.044   0.429  -0.399
    1UNL    H19   71  -0.063   0.372  -0.162
    1UNL    H20   72  -0.246  -0.227  -0.091
    1UNL    H21   73  -0.148  -0.583  -0.238
    1UNL    H22   74  -0.232  -0.646  -0.088
    1UNL    H23   75  -0.327  -0.551  -0.214
    1UNL    H24   76   0.022  -0.582  -0.127
    1UNL    H25   77   0.256  -0.507  -0.086
    1UNL    H26   78   0.062  -0.016   0.023
    1UNL    H27   79   0.169   0.248   0.347
    1UNL    H28   80   0.020   0.175   0.316
    1UNL    H29   81   0.151   0.063   0.371
    1UNL    H30   82   0.219   0.083  -0.158
    1UNL    H31   83   0.261   0.226  -0.059
    1UNL    H32   84   0.399   0.224  -0.259
    1UNL    H33   85   0.605   0.283  -0.127
    1UNL    H34   86   0.465   0.310  -0.028
    1UNL    H35   87   0.676   0.096   0.019
    1UNL    H36   88   0.577   0.160   0.262
    1UNL    H37   89   0.473   0.260   0.181
    1UNL    H38   90   0.665   0.390   0.083
    1UNL    H39   91   0.669   0.377   0.274
    1UNL    H40   92   0.773   0.282   0.164
    1UNL    H41   93   0.514  -0.049   0.116
    1UNL    H42   94   0.490  -0.236  -0.204
    1UNL    H43   95   0.644  -0.222  -0.099
    1UNL    H44   96   0.441  -0.374  -0.019
    1UNL    H45   97   0.490  -0.245   0.086
    1UNL    H46   98   0.587   0.052  -0.272
    1UNL    H47   99   0.419  -0.019  -0.284
    1UNL    H48  100  -0.187  -0.246   0.169
    1UNL    H49  101  -0.126  -0.086   0.150
    1UNL    H50  102  -0.404  -0.152   0.181
    1UNL    H51  103  -0.246   0.028   0.252
    1UNL    H52  104  -0.640   0.116   0.406
    1UNL    H53  105  -0.635  -0.032   0.499
    1UNL    H54  106  -0.519   0.116   0.531
   0.00000   0.00000   0.00000   0.00000   0.00000   0.00000   0.00000   0.00000   0.00000
Generated with MDTraj, t= 89.0
 106
    1UNL     C1    1  -0.635  -0.203   0.034
    1UNL     C2    2  -0.538  -0.150  -0.071
    1UNL     C3    3  -0.439  -0.037  -0.015
    1UNL     C4    4  -0.498   0.097  -0.007
    1UNL     N1    5  -0.390   0.203  -0.006
    1UNL     C5    6  -0.415   0.336  -0.068
    1UNL     C6    7  -0.286   0.170   0.099
    1UNL     C7    8  -0.144   0.135   0.044
    1UNL     C8    9  -0.136   0.086  -0.094
    1UNL     C9   10  -0.132  -0.049  -0.127
    1UNL     N2   11  -0.111  -0.057  -0.263
    1UNL    C10   12  -0.101   0.070  -0.321
    1UNL    C11   13  -0.057   0.120  -0.445
    1UNL    C12   14  -0.034   0.249  -0.458
    1UNL    C13   15  -0.050   0.347  -0.356
    1UNL    C14   16  -0.093   0.300  -0.235
    1UNL    C15   17  -0.110   0.161  -0.212
    1UNL    C16   18  -0.168  -0.177  -0.050
    1UNL    C17   19  -0.051  -0.266  -0.046
    1UNL    C18   20  -0.064  -0.405  -0.067
    1UNL     O1   21  -0.191  -0.453  -0.092
    1UNL    C19   22  -0.217  -0.597  -0.099
    1UNL    C20   23   0.042  -0.491  -0.058
    1UNL    C21   24   0.170  -0.447  -0.051
    1UNL    C22   25   0.193  -0.311  -0.027
    1UNL    C23   26   0.315  -0.226  -0.023
    1UNL    C24   27   0.273  -0.103  -0.004
    1UNL     N3   28   0.133  -0.100  -0.015
    1UNL    C25   29   0.078  -0.224  -0.021
    1UNL    C26   30   0.340   0.027   0.023
    1UNL    C27   31   0.284   0.077   0.155
    1UNL     O2   32   0.349   0.073   0.256
    1UNL     O3   33   0.156   0.127   0.146
    1UNL    C28   34   0.112   0.169   0.271
    1UNL    C29   35   0.303   0.133  -0.088
    1UNL    C30   36   0.428   0.174  -0.167
    1UNL    C31   37   0.535   0.250  -0.076
    1UNL    C32   38   0.581   0.147   0.035
    1UNL    C33   39   0.596   0.221   0.177
    1UNL    C34   40   0.673   0.353   0.179
    1UNL    C35   41   0.500   0.015   0.027
    1UNL     N4   42   0.542  -0.047  -0.103
    1UNL    C36   43   0.534  -0.205  -0.125
    1UNL    C37   44   0.452  -0.283  -0.018
    1UNL    C38   45   0.497   0.044  -0.221
    1UNL    C39   46  -0.232  -0.166   0.098
    1UNL    C40   47  -0.362  -0.072   0.118
    1UNL    C41   48  -0.326   0.056   0.197
    1UNL    C42   49  -0.441   0.099   0.290
    1UNL     O4   50  -0.526   0.187   0.267
    1UNL     O5   51  -0.453   0.005   0.386
    1UNL    C43   52  -0.577   0.020   0.456
    1UNL     H1   53  -0.708  -0.272  -0.000
    1UNL     H2   54  -0.690  -0.128   0.085
    1UNL     H3   55  -0.568  -0.263   0.102
    1UNL     H4   56  -0.583  -0.113  -0.161
    1UNL     H5   57  -0.478  -0.238  -0.104
    1UNL     H6   58  -0.373  -0.015  -0.097
    1UNL     H7   59  -0.570   0.110  -0.080
    1UNL     H8   60  -0.563   0.109   0.079
    1UNL     H9   61  -0.455   0.307  -0.173
    1UNL    H10   62  -0.331   0.403  -0.089
    1UNL    H11   63  -0.495   0.386  -0.018
    1UNL    H12   64  -0.276   0.266   0.153
    1UNL    H13   65  -0.082   0.217   0.057
    1UNL    H14   66  -0.100   0.062   0.113
    1UNL    H15   67  -0.115  -0.137  -0.324
    1UNL    H16   68  -0.020   0.052  -0.523
    1UNL    H17   69   0.004   0.290  -0.552
    1UNL    H18   70  -0.047   0.457  -0.376
    1UNL    H19   71  -0.110   0.370  -0.155
    1UNL    H20   72  -0.247  -0.229  -0.101
    1UNL    H21   73  -0.179  -0.632  -0.195
    1UNL    H22   74  -0.158  -0.652  -0.023
    1UNL    H23   75  -0.335  -0.616  -0.086
    1UNL    H24   76   0.024  -0.596  -0.062
    1UNL    H25   77   0.252  -0.518  -0.052
    1UNL    H26   78   0.081  -0.015  -0.026
    1UNL    H27   79   0.189   0.220   0.333
    1UNL    H28   80   0.034   0.236   0.256
    1UNL    H29   81   0.074   0.070   0.314
    1UNL    H30   82   0.243   0.082  -0.165
    1UNL    H31   83   0.252   0.221  -0.038
    1UNL    H32   84   0.397   0.231  -0.255
    1UNL    H33   85   0.614   0.280  -0.137
    1UNL    H34   86   0.490   0.329  -0.022
    1UNL    H35   87   0.689   0.112   0.017
    1UNL    H36   88   0.634   0.153   0.255
    1UNL    H37   89   0.496   0.234   0.219
    1UNL    H38   90   0.631   0.438   0.120
    1UNL    H39   91   0.691   0.377   0.284
    1UNL    H40   92   0.772   0.340   0.136
    1UNL    H41   93   0.530  -0.049   0.111
    1UNL    H42   94   0.493  -0.209  -0.225
    1UNL    H43   95   0.626  -0.264  -0.124
    1UNL    H44   96   0.452  -0.388  -0.045
    1UNL    H45   97   0.503  -0.278   0.073
    1UNL    H46   98   0.584   0.079  -0.277
    1UNL    H47   99   0.430  -0.009  -0.284
    1UNL    H48  100  -0.254  -0.266   0.151
    1UNL    H49  101  -0.149  -0.130   0.162
    1UNL    H50  102  -0.432  -0.136   0.178
    1UNL    H51  103  -0.251   0.025   0.262
    1UNL    H52  104  -0.601   0.122   0.472
    1UNL    H53  105  -0.651  -0.021   0.380
    1UNL    H54  106  -0.566  -0.023   0.558
   0.00000   0.00000   0.00000   0.00000   0.00000   0.00000   0.00000   0.00000   0.00000
Generated with MDTraj, t= 90.0
 106
    1UNL     C1    1  -0.671  -0.157   0.028
    1UNL     C2    2  -0.553  -0.147  -0.069
    1UNL     C3    3  -0.439  -0.048  -0.033
    1UNL     C4    4  -0.495   0.099  -0.038
    1UNL     N1    5  -0.388   0.200  -0.028
    1UNL     C5    6  -0.419   0.347  -0.030
    1UNL     C6    7  -0.304   0.168   0.097
    1UNL     C7    8  -0.151   0.146   0.048
    1UNL     C8    9  -0.136   0.087  -0.086
    1UNL     C9   10  -0.133  -0.043  -0.125
    1UNL     N2   11  -0.097  -0.052  -0.264
    1UNL    C10   12  -0.086   0.075  -0.310
    1UNL    C11   13  -0.042   0.119  -0.438
    1UNL    C12   14  -0.025   0.254  -0.451
    1UNL    C13   15  -0.049   0.341  -0.349
    1UNL    C14   16  -0.086   0.304  -0.222
    1UNL    C15   17  -0.109   0.167  -0.204
    1UNL    C16   18  -0.164  -0.176  -0.058
    1UNL    C17   19  -0.049  -0.270  -0.043
    1UNL    C18   20  -0.063  -0.407  -0.041
    1UNL     O1   21  -0.186  -0.461  -0.063
    1UNL    C19   22  -0.206  -0.591  -0.028
    1UNL    C20   23   0.046  -0.493  -0.042
    1UNL    C21   24   0.173  -0.437  -0.047
    1UNL    C22   25   0.197  -0.295  -0.051
    1UNL    C23   26   0.314  -0.219  -0.028
    1UNL    C24   27   0.267  -0.089  -0.012
    1UNL     N3   28   0.131  -0.083  -0.030
    1UNL    C25   29   0.081  -0.212  -0.050
    1UNL    C26   30   0.349   0.031   0.016
    1UNL    C27   31   0.289   0.088   0.149
    1UNL     O2   32   0.344   0.050   0.250
    1UNL     O3   33   0.177   0.174   0.143
    1UNL    C28   34   0.131   0.195   0.278
    1UNL    C29   35   0.312   0.132  -0.098
    1UNL    C30   36   0.438   0.166  -0.180
    1UNL    C31   37   0.539   0.240  -0.092
    1UNL    C32   38   0.580   0.145   0.032
    1UNL    C33   39   0.552   0.214   0.175
    1UNL    C34   40   0.658   0.319   0.214
    1UNL    C35   41   0.512   0.008   0.016
    1UNL     N4   42   0.542  -0.049  -0.113
    1UNL    C36   43   0.531  -0.204  -0.129
    1UNL    C37   44   0.447  -0.275  -0.024
    1UNL    C38   45   0.503   0.034  -0.235
    1UNL    C39   46  -0.238  -0.174   0.082
    1UNL    C40   47  -0.371  -0.091   0.099
    1UNL    C41   48  -0.337   0.037   0.188
    1UNL    C42   49  -0.453   0.059   0.280
    1UNL     O4   50  -0.530   0.153   0.261
    1UNL     O5   51  -0.466  -0.027   0.380
    1UNL    C43   52  -0.558   0.029   0.473
    1UNL     H1   53  -0.751  -0.216  -0.012
    1UNL     H2   54  -0.719  -0.065   0.046
    1UNL     H3   55  -0.635  -0.218   0.119
    1UNL     H4   56  -0.603  -0.114  -0.158
    1UNL     H5   57  -0.506  -0.245  -0.092
    1UNL     H6   58  -0.372  -0.044  -0.116
    1UNL     H7   59  -0.561   0.122  -0.113
    1UNL     H8   60  -0.557   0.118   0.050
    1UNL     H9   61  -0.456   0.390  -0.120
    1UNL    H10   62  -0.325   0.401  -0.009
    1UNL    H11   63  -0.491   0.368   0.053
    1UNL    H12   64  -0.316   0.251   0.169
    1UNL    H13   65  -0.108   0.241   0.048
    1UNL    H14   66  -0.088   0.098   0.125
    1UNL    H15   67  -0.064  -0.139  -0.307
    1UNL    H16   68  -0.022   0.042  -0.514
    1UNL    H17   69   0.003   0.294  -0.546
    1UNL    H18   70  -0.025   0.440  -0.374
    1UNL    H19   71  -0.115   0.380  -0.151
    1UNL    H20   72  -0.236  -0.232  -0.114
    1UNL    H21   73  -0.149  -0.655  -0.095
    1UNL    H22   74  -0.158  -0.610   0.073
    1UNL    H23   75  -0.324  -0.615  -0.029
    1UNL    H24   76   0.031  -0.602  -0.045
    1UNL    H25   77   0.255  -0.503  -0.048
    1UNL    H26   78   0.081  -0.003   0.004
    1UNL    H27   79   0.217   0.225   0.339
    1UNL    H28   80   0.054   0.263   0.297
    1UNL    H29   81   0.101   0.087   0.302
    1UNL    H30   82   0.246   0.074  -0.160
    1UNL    H31   83   0.259   0.229  -0.055
    1UNL    H32   84   0.401   0.228  -0.262
    1UNL    H33   85   0.622   0.262  -0.145
    1UNL    H34   86   0.493   0.337  -0.068
    1UNL    H35   87   0.693   0.131   0.019
    1UNL    H36   88   0.544   0.142   0.255
    1UNL    H37   89   0.453   0.267   0.177
    1UNL    H38   90   0.679   0.409   0.148
    1UNL    H39   91   0.643   0.346   0.313
    1UNL    H40   92   0.757   0.271   0.219
    1UNL    H41   93   0.548  -0.060   0.093
    1UNL    H42   94   0.492  -0.241  -0.224
    1UNL    H43   95   0.637  -0.227  -0.132
    1UNL    H44   96   0.441  -0.382  -0.048
    1UNL    H45   97   0.485  -0.275   0.073
    1UNL    H46   98   0.591   0.056  -0.296
    1UNL    H47   99   0.434  -0.021  -0.294
    1UNL    H48  100  -0.251  -0.284   0.113
    1UNL    H49  101  -0.162  -0.145   0.158
    1UNL    H50  102  -0.442  -0.159   0.154
    1UNL    H51  103  -0.261   0.014   0.257
    1UNL    H52  104  -0.510   0.073   0.558
    1UNL    H53  105  -0.616   0.104   0.414
    1UNL    H54  106  -0.613  -0.054   0.517
   0.00000   0.00000   0.00000   0.00000   0.00000   0.00000   0.00000   0.00000   0.00000
Generated with MDTraj, t= 91.0
 106
    1UNL     C1    1  -0.695  -0.109   0.010
    1UNL     C2    2  -0.561  -0.155  -0.059
    1UNL     C3    3  -0.438  -0.067  -0.040
    1UNL     C4    4  -0.489   0.083  -0.063
    1UNL     N1    5  -0.386   0.186  -0.020
    1UNL     C5    6  -0.445   0.324   0.013
    1UNL     C6    7  -0.299   0.147   0.094
    1UNL     C7    8  -0.147   0.138   0.058
    1UNL     C8    9  -0.127   0.077  -0.081
    1UNL     C9   10  -0.143  -0.054  -0.135
    1UNL     N2   11  -0.112  -0.057  -0.270
    1UNL    C10   12  -0.069   0.074  -0.305
    1UNL    C11   13  -0.036   0.135  -0.430
    1UNL    C12   14  -0.027   0.266  -0.434
    1UNL    C13   15  -0.031   0.351  -0.326
    1UNL    C14   16  -0.053   0.292  -0.203
    1UNL    C15   17  -0.079   0.159  -0.190
    1UNL    C16   18  -0.169  -0.186  -0.060
    1UNL    C17   19  -0.049  -0.271  -0.056
    1UNL    C18   20  -0.067  -0.408  -0.045
    1UNL     O1   21  -0.199  -0.451  -0.027
    1UNL    C19   22  -0.212  -0.580   0.028
    1UNL    C20   23   0.040  -0.491  -0.050
    1UNL    C21   24   0.163  -0.437  -0.063
    1UNL    C22   25   0.191  -0.296  -0.045
    1UNL    C23   26   0.306  -0.217  -0.027
    1UNL    C24   27   0.264  -0.087  -0.030
    1UNL     N3   28   0.127  -0.086  -0.043
    1UNL    C25   29   0.082  -0.217  -0.049
    1UNL    C26   30   0.341   0.040   0.004
    1UNL    C27   31   0.284   0.093   0.138
    1UNL     O2   32   0.305   0.021   0.233
    1UNL     O3   33   0.197   0.200   0.142
    1UNL    C28   34   0.176   0.239   0.267
    1UNL    C29   35   0.322   0.148  -0.112
    1UNL    C30   36   0.455   0.175  -0.186
    1UNL    C31   37   0.560   0.237  -0.088
    1UNL    C32   38   0.580   0.143   0.036
    1UNL    C33   39   0.540   0.223   0.158
    1UNL    C34   40   0.659   0.302   0.214
    1UNL    C35   41   0.497   0.014   0.014
    1UNL     N4   42   0.541  -0.043  -0.117
    1UNL    C36   43   0.544  -0.192  -0.117
    1UNL    C37   44   0.450  -0.262  -0.018
    1UNL    C38   45   0.498   0.040  -0.237
    1UNL    C39   46  -0.226  -0.179   0.082
    1UNL    C40   47  -0.366  -0.101   0.089
    1UNL    C41   48  -0.343   0.023   0.179
    1UNL    C42   49  -0.466   0.048   0.263
    1UNL     O4   50  -0.526   0.155   0.254
    1UNL     O5   51  -0.485  -0.042   0.368
    1UNL    C43   52  -0.554   0.024   0.469
    1UNL     H1   53  -0.769  -0.187   0.020
    1UNL     H2   54  -0.751  -0.035  -0.041
    1UNL     H3   55  -0.675  -0.091   0.121
    1UNL     H4   56  -0.578  -0.157  -0.167
    1UNL     H5   57  -0.540  -0.259  -0.028
    1UNL     H6   58  -0.370  -0.079  -0.121
    1UNL     H7   59  -0.530   0.102  -0.156
    1UNL     H8   60  -0.571   0.102   0.005
    1UNL     H9   61  -0.516   0.359  -0.053
    1UNL    H10   62  -0.369   0.405   0.026
    1UNL    H11   63  -0.500   0.307   0.113
    1UNL    H12   64  -0.315   0.222   0.173
    1UNL    H13   65  -0.091   0.226   0.073
    1UNL    H14   66  -0.090   0.074   0.128
    1UNL    H15   67  -0.133  -0.132  -0.338
    1UNL    H16   68  -0.043   0.077  -0.516
    1UNL    H17   69   0.004   0.308  -0.529
    1UNL    H18   70  -0.020   0.461  -0.331
    1UNL    H19   71  -0.045   0.362  -0.121
    1UNL    H20   72  -0.239  -0.245  -0.120
    1UNL    H21   73  -0.186  -0.657  -0.046
    1UNL    H22   74  -0.125  -0.597   0.103
    1UNL    H23   75  -0.316  -0.598   0.072
    1UNL    H24   76   0.025  -0.594  -0.055
    1UNL    H25   77   0.244  -0.512  -0.070
    1UNL    H26   78   0.072   0.002  -0.028
    1UNL    H27   79   0.264   0.292   0.305
    1UNL    H28   80   0.093   0.303   0.271
    1UNL    H29   81   0.150   0.140   0.318
    1UNL    H30   82   0.246   0.116  -0.180
    1UNL    H31   83   0.291   0.244  -0.050
    1UNL    H32   84   0.447   0.243  -0.272
    1UNL    H33   85   0.644   0.256  -0.147
    1UNL    H34   86   0.532   0.337  -0.051
    1UNL    H35   87   0.691   0.119   0.027
    1UNL    H36   88   0.501   0.162   0.237
    1UNL    H37   89   0.467   0.303   0.124
    1UNL    H38   90   0.726   0.360   0.142
    1UNL    H39   91   0.632   0.355   0.300
    1UNL    H40   92   0.732   0.230   0.257
    1UNL    H41   93   0.530  -0.065   0.081
    1UNL    H42   94   0.541  -0.212  -0.225
    1UNL    H43   95   0.644  -0.232  -0.094
    1UNL    H44   96   0.443  -0.369  -0.030
    1UNL    H45   97   0.484  -0.256   0.082
    1UNL    H46   98   0.580   0.050  -0.308
    1UNL    H47   99   0.419  -0.005  -0.294
    1UNL    H48  100  -0.238  -0.286   0.121
    1UNL    H49  101  -0.156  -0.137   0.158
    1UNL    H50  102  -0.437  -0.165   0.147
    1UNL    H51  103  -0.268   0.002   0.251
    1UNL    H52  104  -0.510   0.115   0.501
    1UNL    H53  105  -0.652   0.044   0.421
    1UNL    H54  106  -0.557  -0.042   0.556
   0.00000   0.00000   0.00000   0.00000   0.00000   0.00000   0.00000   0.00000   0.00000
Generated with MDTraj, t= 92.0
 106
    1UNL     C1    1  -0.689  -0.138   0.015
    1UNL     C2    2  -0.569  -0.145  -0.080
    1UNL     C3    3  -0.455  -0.057  -0.029
    1UNL     C4    4  -0.499   0.093  -0.014
    1UNL     N1    5  -0.384   0.182  -0.004
    1UNL     C5    6  -0.406   0.328  -0.007
    1UNL     C6    7  -0.291   0.141   0.108
    1UNL     C7    8  -0.142   0.112   0.071
    1UNL     C8    9  -0.141   0.075  -0.077
    1UNL     C9   10  -0.154  -0.049  -0.136
    1UNL     N2   11  -0.149  -0.035  -0.272
    1UNL    C10   12  -0.096   0.088  -0.300
    1UNL    C11   13  -0.040   0.144  -0.422
    1UNL    C12   14   0.014   0.268  -0.411
    1UNL    C13   15   0.001   0.353  -0.304
    1UNL    C14   16  -0.048   0.301  -0.187
    1UNL    C15   17  -0.095   0.167  -0.181
    1UNL    C16   18  -0.178  -0.188  -0.068
    1UNL    C17   19  -0.052  -0.276  -0.073
    1UNL    C18   20  -0.064  -0.415  -0.058
    1UNL     O1   21  -0.184  -0.475  -0.050
    1UNL    C19   22  -0.196  -0.571   0.055
    1UNL    C20   23   0.057  -0.489  -0.036
    1UNL    C21   24   0.182  -0.439  -0.037
    1UNL    C22   25   0.199  -0.304  -0.053
    1UNL    C23   26   0.314  -0.223  -0.042
    1UNL    C24   27   0.268  -0.093  -0.027
    1UNL     N3   28   0.131  -0.097  -0.058
    1UNL    C25   29   0.078  -0.226  -0.063
    1UNL    C26   30   0.337   0.037  -0.002
    1UNL    C27   31   0.284   0.096   0.124
    1UNL     O2   32   0.283   0.032   0.226
    1UNL     O3   33   0.240   0.223   0.123
    1UNL    C28   34   0.181   0.258   0.245
    1UNL    C29   35   0.316   0.133  -0.129
    1UNL    C30   36   0.455   0.170  -0.187
    1UNL    C31   37   0.545   0.242  -0.077
    1UNL    C32   38   0.574   0.141   0.039
    1UNL    C33   39   0.551   0.211   0.172
    1UNL    C34   40   0.651   0.326   0.186
    1UNL    C35   41   0.490   0.015   0.010
    1UNL     N4   42   0.552  -0.052  -0.108
    1UNL    C36   43   0.559  -0.202  -0.123
    1UNL    C37   44   0.457  -0.273  -0.033
    1UNL    C38   45   0.515   0.036  -0.233
    1UNL    C39   46  -0.248  -0.192   0.070
    1UNL    C40   47  -0.380  -0.104   0.098
    1UNL    C41   48  -0.349   0.025   0.192
    1UNL    C42   49  -0.468   0.068   0.279
    1UNL     O4   50  -0.536   0.165   0.250
    1UNL     O5   51  -0.489  -0.010   0.391
    1UNL    C43   52  -0.618  -0.011   0.428
    1UNL     H1   53  -0.766  -0.216   0.004
    1UNL     H2   54  -0.749  -0.050   0.009
    1UNL     H3   55  -0.647  -0.165   0.113
    1UNL     H4   56  -0.596  -0.120  -0.183
    1UNL     H5   57  -0.539  -0.251  -0.076
    1UNL     H6   58  -0.380  -0.056  -0.107
    1UNL     H7   59  -0.561   0.122  -0.095
    1UNL     H8   60  -0.557   0.107   0.074
    1UNL     H9   61  -0.463   0.363  -0.090
    1UNL    H10   62  -0.311   0.382  -0.003
    1UNL    H11   63  -0.467   0.344   0.088
    1UNL    H12   64  -0.288   0.222   0.181
    1UNL    H13   65  -0.076   0.196   0.087
    1UNL    H14   66  -0.079   0.037   0.122
    1UNL    H15   67  -0.151  -0.116  -0.337
    1UNL    H16   68  -0.044   0.078  -0.514
    1UNL    H17   69   0.061   0.309  -0.499
    1UNL    H18   70   0.044   0.451  -0.306
    1UNL    H19   71  -0.035   0.367  -0.100
    1UNL    H20   72  -0.242  -0.243  -0.137
    1UNL    H21   73  -0.131  -0.660   0.039
    1UNL    H22   74  -0.139  -0.525   0.147
    1UNL    H23   75  -0.299  -0.600   0.078
    1UNL    H24   76   0.025  -0.591  -0.011
    1UNL    H25   77   0.263  -0.503  -0.017
    1UNL    H26   78   0.072  -0.026  -0.112
    1UNL    H27   79   0.241   0.223   0.330
    1UNL    H28   80   0.161   0.361   0.259
    1UNL    H29   81   0.084   0.202   0.241
    1UNL    H30   82   0.266   0.067  -0.200
    1UNL    H31   83   0.248   0.221  -0.108
    1UNL    H32   84   0.443   0.246  -0.265
    1UNL    H33   85   0.644   0.282  -0.108
    1UNL    H34   86   0.488   0.331  -0.050
    1UNL    H35   87   0.683   0.112   0.038
    1UNL    H36   88   0.563   0.137   0.249
    1UNL    H37   89   0.449   0.262   0.172
    1UNL    H38   90   0.639   0.423   0.130
    1UNL    H39   91   0.665   0.345   0.290
    1UNL    H40   92   0.754   0.299   0.156
    1UNL    H41   93   0.494  -0.045   0.102
    1UNL    H42   94   0.561  -0.243  -0.224
    1UNL    H43   95   0.661  -0.223  -0.089
    1UNL    H44   96   0.463  -0.376  -0.051
    1UNL    H45   97   0.488  -0.260   0.070
    1UNL    H46   98   0.601   0.038  -0.298
    1UNL    H47   99   0.441  -0.015  -0.292
    1UNL    H48  100  -0.280  -0.298   0.098
    1UNL    H49  101  -0.171  -0.172   0.149
    1UNL    H50  102  -0.455  -0.161   0.155
    1UNL    H51  103  -0.263  -0.002   0.248
    1UNL    H52  104  -0.648   0.085   0.465
    1UNL    H53  105  -0.674  -0.033   0.335
    1UNL    H54  106  -0.629  -0.087   0.506
   0.00000   0.00000   0.00000   0.00000   0.00000   0.00000   0.00000   0.00000   0.00000
Generated with MDTraj, t= 93.0
 106
    1UNL     C1    1  -0.648  -0.162   0.041
    1UNL     C2    2  -0.555  -0.135  -0.079
    1UNL     C3    3  -0.436  -0.055  -0.039
    1UNL     C4    4  -0.478   0.094  -0.033
    1UNL     N1    5  -0.361   0.181   0.005
    1UNL     C5    6  -0.365   0.334  -0.018
    1UNL     C6    7  -0.283   0.135   0.128
    1UNL     C7    8  -0.136   0.105   0.083
    1UNL     C8    9  -0.127   0.070  -0.059
    1UNL     C9   10  -0.144  -0.053  -0.115
    1UNL     N2   11  -0.109  -0.044  -0.247
    1UNL    C10   12  -0.075   0.085  -0.280
    1UNL    C11   13  -0.049   0.143  -0.409
    1UNL    C12   14   0.000   0.270  -0.403
    1UNL    C13   15   0.016   0.340  -0.280
    1UNL    C14   16  -0.027   0.287  -0.159
    1UNL    C15   17  -0.073   0.157  -0.159
    1UNL    C16   18  -0.183  -0.188  -0.057
    1UNL    C17   19  -0.060  -0.270  -0.051
    1UNL    C18   20  -0.070  -0.406  -0.047
    1UNL     O1   21  -0.207  -0.450  -0.037
    1UNL    C19   22  -0.229  -0.562   0.039
    1UNL    C20   23   0.041  -0.487  -0.061
    1UNL    C21   24   0.165  -0.442  -0.057
    1UNL    C22   25   0.185  -0.300  -0.042
    1UNL    C23   26   0.297  -0.218  -0.023
    1UNL    C24   27   0.262  -0.087  -0.024
    1UNL     N3   28   0.126  -0.086  -0.038
    1UNL    C25   29   0.070  -0.217  -0.052
    1UNL    C26   30   0.340   0.042  -0.013
    1UNL    C27   31   0.271   0.103   0.101
    1UNL     O2   32   0.254   0.044   0.206
    1UNL     O3   33   0.235   0.234   0.096
    1UNL    C28   34   0.189   0.284   0.224
    1UNL    C29   35   0.329   0.119  -0.146
    1UNL    C30   36   0.473   0.158  -0.203
    1UNL    C31   37   0.540   0.242  -0.095
    1UNL    C32   38   0.573   0.152   0.030
    1UNL    C33   39   0.560   0.218   0.169
    1UNL    C34   40   0.637   0.348   0.181
    1UNL    C35   41   0.497   0.017   0.014
    1UNL     N4   42   0.549  -0.057  -0.110
    1UNL    C36   43   0.515  -0.192  -0.140
    1UNL    C37   44   0.436  -0.261  -0.022
    1UNL    C38   45   0.546   0.032  -0.238
    1UNL    C39   46  -0.241  -0.191   0.083
    1UNL    C40   47  -0.374  -0.109   0.096
    1UNL    C41   48  -0.355   0.011   0.196
    1UNL    C42   49  -0.486   0.046   0.261
    1UNL     O4   50  -0.545   0.150   0.244
    1UNL     O5   51  -0.531  -0.062   0.346
    1UNL    C43   52  -0.630  -0.010   0.431
    1UNL     H1   53  -0.747  -0.201   0.011
    1UNL     H2   54  -0.684  -0.068   0.083
    1UNL     H3   55  -0.605  -0.233   0.107
    1UNL     H4   56  -0.619  -0.076  -0.147
    1UNL     H5   57  -0.527  -0.225  -0.134
    1UNL     H6   58  -0.361  -0.062  -0.118
    1UNL     H7   59  -0.514   0.127  -0.132
    1UNL     H8   60  -0.558   0.104   0.036
    1UNL     H9   61  -0.422   0.346  -0.115
    1UNL    H10   62  -0.267   0.380  -0.032
    1UNL    H11   63  -0.428   0.379   0.058
    1UNL    H12   64  -0.286   0.214   0.202
    1UNL    H13   65  -0.074   0.194   0.095
    1UNL    H14   66  -0.079   0.037   0.148
    1UNL    H15   67  -0.099  -0.126  -0.310
    1UNL    H16   68  -0.052   0.092  -0.498
    1UNL    H17   69   0.022   0.327  -0.493
    1UNL    H18   70   0.067   0.434  -0.291
    1UNL    H19   71  -0.020   0.341  -0.070
    1UNL    H20   72  -0.247  -0.250  -0.122
    1UNL    H21   73  -0.197  -0.659  -0.010
    1UNL    H22   74  -0.166  -0.554   0.135
    1UNL    H23   75  -0.331  -0.568   0.062
    1UNL    H24   76   0.024  -0.593  -0.066
    1UNL    H25   77   0.251  -0.509  -0.071
    1UNL    H26   78   0.087   0.012  -0.043
    1UNL    H27   79   0.261   0.260   0.302
    1UNL    H28   80   0.163   0.386   0.233
    1UNL    H29   81   0.098   0.225   0.250
    1UNL    H30   82   0.279   0.047  -0.216
    1UNL    H31   83   0.260   0.198  -0.123
    1UNL    H32   84   0.468   0.223  -0.292
    1UNL    H33   85   0.631   0.294  -0.147
    1UNL    H34   86   0.474   0.319  -0.061
    1UNL    H35   87   0.682   0.126   0.025
    1UNL    H36   88   0.593   0.150   0.245
    1UNL    H37   89   0.449   0.237   0.184
    1UNL    H38   90   0.612   0.424   0.109
    1UNL    H39   91   0.631   0.385   0.286
    1UNL    H40   92   0.744   0.329   0.164
    1UNL    H41   93   0.518  -0.049   0.098
    1UNL    H42   94   0.470  -0.202  -0.240
    1UNL    H43   95   0.605  -0.253  -0.152
    1UNL    H44   96   0.444  -0.365  -0.029
    1UNL    H45   97   0.492  -0.238   0.070
    1UNL    H46   98   0.637   0.052  -0.294
    1UNL    H47   99   0.489  -0.022  -0.311
    1UNL    H48  100  -0.250  -0.298   0.121
    1UNL    H49  101  -0.159  -0.151   0.151
    1UNL    H50  102  -0.449  -0.166   0.152
    1UNL    H51  103  -0.292  -0.025   0.275
    1UNL    H52  104  -0.602   0.092   0.457
    1UNL    H53  105  -0.727  -0.003   0.378
    1UNL    H54  106  -0.642  -0.075   0.521
   0.00000   0.00000   0.00000   0.00000   0.00000   0.00000   0.00000   0.00000   0.00000
Generated with MDTraj, t= 94.0
 106
    1UNL     C1    1  -0.691  -0.148   0.025
    1UNL     C2    2  -0.570  -0.150  -0.067
    1UNL     C3    3  -0.448  -0.057  -0.033
    1UNL     C4    4  -0.479   0.090  -0.040
    1UNL     N1    5  -0.368   0.174  -0.005
    1UNL     C5    6  -0.384   0.320  -0.024
    1UNL     C6    7  -0.299   0.146   0.132
    1UNL     C7    8  -0.146   0.132   0.095
    1UNL     C8    9  -0.121   0.086  -0.040
    1UNL     C9   10  -0.133  -0.045  -0.096
    1UNL     N2   11  -0.105  -0.036  -0.232
    1UNL    C10   12  -0.068   0.097  -0.261
    1UNL    C11   13  -0.022   0.162  -0.375
    1UNL    C12   14   0.019   0.291  -0.378
    1UNL    C13   15   0.029   0.363  -0.255
    1UNL    C14   16  -0.028   0.308  -0.142
    1UNL    C15   17  -0.066   0.168  -0.139
    1UNL    C16   18  -0.170  -0.186  -0.044
    1UNL    C17   19  -0.048  -0.282  -0.036
    1UNL    C18   20  -0.068  -0.421  -0.048
    1UNL     O1   21  -0.196  -0.472  -0.066
    1UNL    C19   22  -0.234  -0.598  -0.008
    1UNL    C20   23   0.044  -0.505  -0.034
    1UNL    C21   24   0.173  -0.455  -0.029
    1UNL    C22   25   0.193  -0.313  -0.033
    1UNL    C23   26   0.309  -0.231  -0.030
    1UNL    C24   27   0.266  -0.099  -0.033
    1UNL     N3   28   0.130  -0.099  -0.031
    1UNL    C25   29   0.085  -0.228  -0.036
    1UNL    C26   30   0.337   0.025  -0.018
    1UNL    C27   31   0.275   0.117   0.095
    1UNL     O2   32   0.262   0.072   0.207
    1UNL     O3   33   0.247   0.241   0.061
    1UNL    C28   34   0.188   0.316   0.155
    1UNL    C29   35   0.318   0.100  -0.155
    1UNL    C30   36   0.453   0.153  -0.215
    1UNL    C31   37   0.518   0.240  -0.099
    1UNL    C32   38   0.562   0.151   0.019
    1UNL    C33   39   0.548   0.220   0.161
    1UNL    C34   40   0.643   0.341   0.189
    1UNL    C35   41   0.494   0.010   0.004
    1UNL     N4   42   0.546  -0.051  -0.119
    1UNL    C36   43   0.537  -0.194  -0.133
    1UNL    C37   44   0.441  -0.277  -0.036
    1UNL    C38   45   0.533   0.033  -0.248
    1UNL    C39   46  -0.246  -0.193   0.092
    1UNL    C40   47  -0.377  -0.103   0.105
    1UNL    C41   48  -0.353   0.012   0.205
    1UNL    C42   49  -0.482   0.048   0.278
    1UNL     O4   50  -0.518   0.161   0.267
    1UNL     O5   51  -0.529  -0.057   0.341
    1UNL    C43   52  -0.654  -0.018   0.392
    1UNL     H1   53  -0.786  -0.188  -0.020
    1UNL     H2   54  -0.723  -0.042   0.039
    1UNL     H3   55  -0.681  -0.199   0.114
    1UNL     H4   56  -0.597  -0.115  -0.169
    1UNL     H5   57  -0.539  -0.253  -0.086
    1UNL     H6   58  -0.375  -0.074  -0.115
    1UNL     H7   59  -0.510   0.116  -0.144
    1UNL     H8   60  -0.557   0.115   0.027
    1UNL     H9   61  -0.404   0.329  -0.140
    1UNL    H10   62  -0.286   0.363  -0.001
    1UNL    H11   63  -0.469   0.358   0.026
    1UNL    H12   64  -0.317   0.232   0.197
    1UNL    H13   65  -0.093   0.228   0.114
    1UNL    H14   66  -0.102   0.054   0.158
    1UNL    H15   67  -0.115  -0.109  -0.305
    1UNL    H16   68  -0.018   0.098  -0.464
    1UNL    H17   69   0.065   0.333  -0.468
    1UNL    H18   70   0.058   0.469  -0.247
    1UNL    H19   71  -0.041   0.372  -0.053
    1UNL    H20   72  -0.237  -0.234  -0.119
    1UNL    H21   73  -0.192  -0.685  -0.066
    1UNL    H22   74  -0.185  -0.603   0.092
    1UNL    H23   75  -0.335  -0.610   0.007
    1UNL    H24   76   0.023  -0.610  -0.032
    1UNL    H25   77   0.258  -0.513  -0.004
    1UNL    H26   78   0.070  -0.024  -0.013
    1UNL    H27   79   0.260   0.379   0.206
    1UNL    H28   80   0.109   0.376   0.109
    1UNL    H29   81   0.143   0.250   0.233
    1UNL    H30   82   0.247   0.039  -0.221
    1UNL    H31   83   0.268   0.186  -0.132
    1UNL    H32   84   0.419   0.209  -0.305
    1UNL    H33   85   0.620   0.285  -0.135
    1UNL    H34   86   0.449   0.320  -0.075
    1UNL    H35   87   0.670   0.126   0.013
    1UNL    H36   88   0.555   0.148   0.241
    1UNL    H37   89   0.440   0.248   0.171
    1UNL    H38   90   0.658   0.402   0.104
    1UNL    H39   91   0.606   0.397   0.282
    1UNL    H40   92   0.739   0.296   0.215
    1UNL    H41   93   0.514  -0.056   0.090
    1UNL    H42   94   0.512  -0.226  -0.236
    1UNL    H43   95   0.640  -0.233  -0.125
    1UNL    H44   96   0.449  -0.374  -0.071
    1UNL    H45   97   0.487  -0.284   0.063
    1UNL    H46   98   0.638   0.054  -0.266
    1UNL    H47   99   0.505  -0.017  -0.340
    1UNL    H48  100  -0.269  -0.303   0.109
    1UNL    H49  101  -0.167  -0.168   0.169
    1UNL    H50  102  -0.451  -0.165   0.158
    1UNL    H51  103  -0.282  -0.023   0.279
    1UNL    H52  104  -0.642   0.033   0.488
    1UNL    H53  105  -0.701   0.062   0.331
    1UNL    H54  106  -0.728  -0.102   0.392
   0.00000   0.00000   0.00000   0.00000   0.00000   0.00000   0.00000   0.00000   0.00000
Generated with MDTraj, t= 95.0
 106
    1UNL     C1    1  -0.712  -0.132   0.017
    1UNL     C2    2  -0.577  -0.160  -0.052
    1UNL     C3    3  -0.453  -0.064  -0.022
    1UNL     C4    4  -0.496   0.081  -0.028
    1UNL     N1    5  -0.379   0.172   0.002
    1UNL     C5    6  -0.402   0.317  -0.016
    1UNL     C6    7  -0.304   0.138   0.130
    1UNL     C7    8  -0.147   0.110   0.103
    1UNL     C8    9  -0.127   0.077  -0.036
    1UNL     C9   10  -0.144  -0.040  -0.108
    1UNL     N2   11  -0.088  -0.028  -0.242
    1UNL    C10   12  -0.043   0.102  -0.257
    1UNL    C11   13   0.033   0.165  -0.360
    1UNL    C12   14   0.050   0.305  -0.345
    1UNL    C13   15   0.002   0.370  -0.227
    1UNL    C14   16  -0.047   0.301  -0.120
    1UNL    C15   17  -0.070   0.165  -0.132
    1UNL    C16   18  -0.168  -0.181  -0.046
    1UNL    C17   19  -0.045  -0.276  -0.041
    1UNL    C18   20  -0.055  -0.417  -0.039
    1UNL     O1   21  -0.189  -0.464  -0.049
    1UNL    C19   22  -0.208  -0.601  -0.069
    1UNL    C20   23   0.060  -0.498  -0.041
    1UNL    C21   24   0.182  -0.448  -0.016
    1UNL    C22   25   0.198  -0.312  -0.013
    1UNL    C23   26   0.313  -0.223  -0.007
    1UNL    C24   27   0.263  -0.097  -0.014
    1UNL     N3   28   0.126  -0.098  -0.027
    1UNL    C25   29   0.084  -0.228  -0.025
    1UNL    C26   30   0.332   0.034  -0.029
    1UNL    C27   31   0.277   0.130   0.074
    1UNL     O2   32   0.279   0.102   0.193
    1UNL     O3   33   0.220   0.248   0.031
    1UNL    C28   34   0.180   0.328   0.140
    1UNL    C29   35   0.320   0.091  -0.183
    1UNL    C30   36   0.465   0.137  -0.224
    1UNL    C31   37   0.525   0.235  -0.119
    1UNL    C32   38   0.565   0.146   0.002
    1UNL    C33   39   0.555   0.209   0.142
    1UNL    C34   40   0.653   0.321   0.169
    1UNL    C35   41   0.486   0.012  -0.006
    1UNL     N4   42   0.548  -0.070  -0.116
    1UNL    C36   43   0.523  -0.212  -0.138
    1UNL    C37   44   0.458  -0.272  -0.013
    1UNL    C38   45   0.564   0.014  -0.235
    1UNL    C39   46  -0.244  -0.186   0.094
    1UNL    C40   47  -0.378  -0.102   0.117
    1UNL    C41   48  -0.362   0.017   0.211
    1UNL    C42   49  -0.490   0.051   0.280
    1UNL     O4   50  -0.515   0.165   0.309
    1UNL     O5   51  -0.582  -0.059   0.306
    1UNL    C43   52  -0.681  -0.008   0.388
    1UNL     H1   53  -0.786  -0.202  -0.023
    1UNL     H2   54  -0.752  -0.030  -0.009
    1UNL     H3   55  -0.702  -0.152   0.119
    1UNL     H4   56  -0.591  -0.183  -0.160
    1UNL     H5   57  -0.539  -0.254  -0.011
    1UNL     H6   58  -0.378  -0.084  -0.101
    1UNL     H7   59  -0.530   0.108  -0.130
    1UNL     H8   60  -0.580   0.107   0.035
    1UNL     H9   61  -0.461   0.326  -0.110
    1UNL    H10   62  -0.304   0.368  -0.025
    1UNL    H11   63  -0.467   0.354   0.062
    1UNL    H12   64  -0.311   0.230   0.190
    1UNL    H13   65  -0.085   0.198   0.137
    1UNL    H14   66  -0.127   0.028   0.170
    1UNL    H15   67  -0.068  -0.099  -0.314
    1UNL    H16   68   0.079   0.108  -0.442
    1UNL    H17   69   0.091   0.355  -0.429
    1UNL    H18   70   0.020   0.473  -0.217
    1UNL    H19   71  -0.096   0.340  -0.035
    1UNL    H20   72  -0.244  -0.230  -0.113
    1UNL    H21   73  -0.178  -0.626  -0.172
    1UNL    H22   74  -0.155  -0.662   0.002
    1UNL    H23   75  -0.308  -0.620  -0.045
    1UNL    H24   76   0.052  -0.607  -0.058
    1UNL    H25   77   0.262  -0.521  -0.014
    1UNL    H26   78   0.079  -0.017  -0.062
    1UNL    H27   79   0.259   0.334   0.212
    1UNL    H28   80   0.145   0.430   0.109
    1UNL    H29   81   0.099   0.275   0.195
    1UNL    H30   82   0.296   0.002  -0.250
    1UNL    H31   83   0.244   0.160  -0.201
    1UNL    H32   84   0.468   0.187  -0.322
    1UNL    H33   85   0.617   0.288  -0.163
    1UNL    H34   86   0.452   0.315  -0.083
    1UNL    H35   87   0.669   0.111  -0.007
    1UNL    H36   88   0.546   0.131   0.218
    1UNL    H37   89   0.454   0.247   0.154
    1UNL    H38   90   0.625   0.410   0.120
    1UNL    H39   91   0.669   0.337   0.282
    1UNL    H40   92   0.750   0.294   0.128
    1UNL    H41   93   0.491  -0.049   0.085
    1UNL    H42   94   0.461  -0.229  -0.227
    1UNL    H43   95   0.614  -0.270  -0.160
    1UNL    H44   96   0.455  -0.378  -0.017
    1UNL    H45   97   0.521  -0.252   0.075
    1UNL    H46   98   0.667   0.048  -0.245
    1UNL    H47   99   0.561  -0.049  -0.325
    1UNL    H48  100  -0.269  -0.295   0.120
    1UNL    H49  101  -0.163  -0.155   0.168
    1UNL    H50  102  -0.445  -0.174   0.165
    1UNL    H51  103  -0.294  -0.011   0.293
    1UNL    H52  104  -0.636   0.058   0.463
    1UNL    H53  105  -0.750   0.055   0.330
    1UNL    H54  106  -0.738  -0.093   0.427
   0.00000   0.00000   0.00000   0.00000   0.00000   0.00000   0.00000   0.00000   0.00000
Generated with MDTraj, t= 96.0
 106
    1UNL     C1    1  -0.683  -0.158   0.034
    1UNL     C2    2  -0.575  -0.160  -0.070
    1UNL     C3    3  -0.458  -0.072  -0.034
    1UNL     C4    4  -0.506   0.082  -0.025
    1UNL     N1    5  -0.386   0.168   0.014
    1UNL     C5    6  -0.436   0.310   0.010
    1UNL     C6    7  -0.313   0.126   0.144
    1UNL     C7    8  -0.156   0.107   0.117
    1UNL     C8    9  -0.134   0.082  -0.024
    1UNL     C9   10  -0.138  -0.045  -0.086
    1UNL     N2   11  -0.093  -0.040  -0.214
    1UNL    C10   12  -0.049   0.094  -0.236
    1UNL    C11   13   0.022   0.145  -0.338
    1UNL    C12   14   0.056   0.282  -0.339
    1UNL    C13   15   0.023   0.369  -0.230
    1UNL    C14   16  -0.039   0.310  -0.122
    1UNL    C15   17  -0.077   0.172  -0.121
    1UNL    C16   18  -0.176  -0.180  -0.037
    1UNL    C17   19  -0.058  -0.272  -0.037
    1UNL    C18   20  -0.079  -0.406  -0.032
    1UNL     O1   21  -0.206  -0.458  -0.045
    1UNL    C19   22  -0.215  -0.571  -0.135
    1UNL    C20   23   0.034  -0.493  -0.010
    1UNL    C21   24   0.168  -0.442  -0.009
    1UNL    C22   25   0.186  -0.305  -0.015
    1UNL    C23   26   0.306  -0.220  -0.020
    1UNL    C24   27   0.266  -0.089  -0.010
    1UNL     N3   28   0.126  -0.091  -0.018
    1UNL    C25   29   0.074  -0.222  -0.017
    1UNL    C26   30   0.352   0.039  -0.024
    1UNL    C27   31   0.303   0.137   0.069
    1UNL     O2   32   0.308   0.118   0.189
    1UNL     O3   33   0.236   0.244   0.010
    1UNL    C28   34   0.177   0.327   0.106
    1UNL    C29   35   0.349   0.101  -0.166
    1UNL    C30   36   0.488   0.134  -0.227
    1UNL    C31   37   0.571   0.227  -0.130
    1UNL    C32   38   0.596   0.143   0.002
    1UNL    C33   39   0.579   0.236   0.121
    1UNL    C34   40   0.680   0.350   0.129
    1UNL    C35   41   0.502   0.015   0.003
    1UNL     N4   42   0.550  -0.066  -0.113
    1UNL    C36   43   0.529  -0.216  -0.130
    1UNL    C37   44   0.456  -0.267  -0.012
    1UNL    C38   45   0.573   0.008  -0.238
    1UNL    C39   46  -0.268  -0.200   0.088
    1UNL    C40   47  -0.398  -0.117   0.101
    1UNL    C41   48  -0.376  -0.004   0.202
    1UNL    C42   49  -0.510   0.033   0.284
    1UNL     O4   50  -0.510   0.145   0.328
    1UNL     O5   51  -0.610  -0.057   0.287
    1UNL    C43   52  -0.709  -0.002   0.365
    1UNL     H1   53  -0.745  -0.241   0.012
    1UNL     H2   54  -0.745  -0.065   0.020
    1UNL     H3   55  -0.641  -0.176   0.134
    1UNL     H4   56  -0.613  -0.129  -0.170
    1UNL     H5   57  -0.537  -0.260  -0.092
    1UNL     H6   58  -0.374  -0.078  -0.108
    1UNL     H7   59  -0.559   0.123  -0.112
    1UNL     H8   60  -0.575   0.093   0.062
    1UNL     H9   61  -0.477   0.340  -0.080
    1UNL    H10   62  -0.348   0.376   0.035
    1UNL    H11   63  -0.519   0.325   0.084
    1UNL    H12   64  -0.330   0.206   0.219
    1UNL    H13   65  -0.118   0.212   0.144
    1UNL    H14   66  -0.112   0.026   0.174
    1UNL    H15   67  -0.082  -0.111  -0.287
    1UNL    H16   68   0.038   0.082  -0.421
    1UNL    H17   69   0.093   0.330  -0.430
    1UNL    H18   70   0.037   0.479  -0.234
    1UNL    H19   71  -0.067   0.365  -0.031
    1UNL    H20   72  -0.254  -0.219  -0.109
    1UNL    H21   73  -0.143  -0.553  -0.211
    1UNL    H22   74  -0.197  -0.660  -0.085
    1UNL    H23   75  -0.319  -0.579  -0.170
    1UNL    H24   76   0.019  -0.597  -0.018
    1UNL    H25   77   0.254  -0.509  -0.001
    1UNL    H26   78   0.070  -0.018  -0.056
    1UNL    H27   79   0.250   0.366   0.173
    1UNL    H28   80   0.118   0.406   0.049
    1UNL    H29   81   0.110   0.264   0.165
    1UNL    H30   82   0.303   0.029  -0.236
    1UNL    H31   83   0.285   0.189  -0.164
    1UNL    H32   84   0.479   0.182  -0.327
    1UNL    H33   85   0.665   0.269  -0.177
    1UNL    H34   86   0.508   0.323  -0.098
    1UNL    H35   87   0.699   0.106  -0.002
    1UNL    H36   88   0.579   0.183   0.217
    1UNL    H37   89   0.476   0.266   0.128
    1UNL    H38   90   0.696   0.397   0.035
    1UNL    H39   91   0.652   0.427   0.208
    1UNL    H40   92   0.778   0.314   0.162
    1UNL    H41   93   0.512  -0.036   0.099
    1UNL    H42   94   0.472  -0.252  -0.219
    1UNL    H43   95   0.629  -0.259  -0.154
    1UNL    H44   96   0.460  -0.375  -0.004
    1UNL    H45   97   0.492  -0.231   0.083
    1UNL    H46   98   0.679   0.032  -0.247
    1UNL    H47   99   0.554  -0.059  -0.324
    1UNL    H48  100  -0.295  -0.311   0.095
    1UNL    H49  101  -0.205  -0.177   0.178
    1UNL    H50  102  -0.471  -0.182   0.151
    1UNL    H51  103  -0.299  -0.042   0.271
    1UNL    H52  104  -0.664   0.035   0.457
    1UNL    H53  105  -0.745   0.089   0.319
    1UNL    H54  106  -0.792  -0.070   0.379
   0.00000   0.00000   0.00000   0.00000   0.00000   0.00000   0.00000   0.00000   0.00000
Generated with MDTraj, t= 97.0
 106
    1UNL     C1    1  -0.690  -0.198  -0.016
    1UNL     C2    2  -0.561  -0.164  -0.089
    1UNL     C3    3  -0.461  -0.066  -0.020
    1UNL     C4    4  -0.535   0.074   0.008
    1UNL     N1    5  -0.414   0.167   0.027
    1UNL     C5    6  -0.450   0.315   0.028
    1UNL     C6    7  -0.330   0.130   0.152
    1UNL     C7    8  -0.180   0.126   0.115
    1UNL     C8    9  -0.158   0.083  -0.032
    1UNL     C9   10  -0.154  -0.047  -0.085
    1UNL     N2   11  -0.099  -0.028  -0.213
    1UNL    C10   12  -0.067   0.105  -0.238
    1UNL    C11   13  -0.005   0.159  -0.353
    1UNL    C12   14   0.052   0.286  -0.344
    1UNL    C13   15   0.035   0.354  -0.218
    1UNL    C14   16  -0.043   0.307  -0.117
    1UNL    C15   17  -0.100   0.176  -0.124
    1UNL    C16   18  -0.180  -0.184  -0.028
    1UNL    C17   19  -0.048  -0.259  -0.011
    1UNL    C18   20  -0.060  -0.396  -0.019
    1UNL     O1   21  -0.191  -0.454  -0.042
    1UNL    C19   22  -0.203  -0.517  -0.170
    1UNL    C20   23   0.050  -0.482  -0.011
    1UNL    C21   24   0.176  -0.430  -0.003
    1UNL    C22   25   0.193  -0.294  -0.011
    1UNL    C23   26   0.316  -0.214   0.001
    1UNL    C24   27   0.273  -0.083  -0.021
    1UNL     N3   28   0.134  -0.079  -0.030
    1UNL    C25   29   0.086  -0.207  -0.017
    1UNL    C26   30   0.360   0.034  -0.044
    1UNL    C27   31   0.311   0.140   0.062
    1UNL     O2   32   0.328   0.116   0.180
    1UNL     O3   33   0.246   0.247   0.017
    1UNL    C28   34   0.216   0.327   0.124
    1UNL    C29   35   0.344   0.083  -0.191
    1UNL    C30   36   0.483   0.108  -0.248
    1UNL    C31   37   0.562   0.204  -0.149
    1UNL    C32   38   0.596   0.138  -0.014
    1UNL    C33   39   0.592   0.224   0.114
    1UNL    C34   40   0.685   0.347   0.116
    1UNL    C35   41   0.509   0.007  -0.007
    1UNL     N4   42   0.562  -0.082  -0.109
    1UNL    C36   43   0.553  -0.230  -0.086
    1UNL    C37   44   0.458  -0.269   0.021
    1UNL    C38   45   0.568  -0.020  -0.248
    1UNL    C39   46  -0.257  -0.180   0.107
    1UNL    C40   47  -0.399  -0.117   0.113
    1UNL    C41   48  -0.386   0.004   0.217
    1UNL    C42   49  -0.511   0.041   0.289
    1UNL     O4   50  -0.529   0.138   0.356
    1UNL     O5   51  -0.612  -0.058   0.275
    1UNL    C43   52  -0.732  -0.023   0.330
    1UNL     H1   53  -0.756  -0.254  -0.077
    1UNL     H2   54  -0.750  -0.108   0.005
    1UNL     H3   55  -0.679  -0.264   0.075
    1UNL     H4   56  -0.570  -0.118  -0.191
    1UNL     H5   57  -0.513  -0.256  -0.125
    1UNL     H6   58  -0.372  -0.036  -0.083
    1UNL     H7   59  -0.596   0.103  -0.078
    1UNL     H8   60  -0.600   0.074   0.100
    1UNL     H9   61  -0.501   0.354  -0.055
    1UNL    H10   62  -0.358   0.375   0.037
    1UNL    H11   63  -0.519   0.341   0.115
    1UNL    H12   64  -0.345   0.211   0.229
    1UNL    H13   65  -0.125   0.226   0.117
    1UNL    H14   66  -0.126   0.052   0.172
    1UNL    H15   67  -0.064  -0.105  -0.268
    1UNL    H16   68   0.002   0.099  -0.449
    1UNL    H17   69   0.112   0.316  -0.427
    1UNL    H18   70   0.090   0.441  -0.194
    1UNL    H19   71  -0.038   0.344  -0.015
    1UNL    H20   72  -0.250  -0.245  -0.096
    1UNL    H21   73  -0.123  -0.581  -0.179
    1UNL    H22   74  -0.298  -0.556  -0.185
    1UNL    H23   75  -0.202  -0.439  -0.249
    1UNL    H24   76   0.042  -0.591  -0.028
    1UNL    H25   77   0.251  -0.502   0.013
    1UNL    H26   78   0.090   0.010  -0.015
    1UNL    H27   79   0.303   0.349   0.182
    1UNL    H28   80   0.162   0.416   0.076
    1UNL    H29   81   0.148   0.270   0.186
    1UNL    H30   82   0.291   0.011  -0.251
    1UNL    H31   83   0.281   0.180  -0.187
    1UNL    H32   84   0.473   0.162  -0.345
    1UNL    H33   85   0.658   0.243  -0.195
    1UNL    H34   86   0.496   0.302  -0.139
    1UNL    H35   87   0.696   0.100  -0.032
    1UNL    H36   88   0.611   0.159   0.199
    1UNL    H37   89   0.500   0.264   0.143
    1UNL    H38   90   0.657   0.413   0.032
    1UNL    H39   91   0.680   0.397   0.212
    1UNL    H40   92   0.791   0.322   0.099
    1UNL    H41   93   0.522  -0.032   0.094
    1UNL    H42   94   0.506  -0.269  -0.178
    1UNL    H43   95   0.647  -0.290  -0.085
    1UNL    H44   96   0.441  -0.380   0.028
    1UNL    H45   97   0.498  -0.241   0.116
    1UNL    H46   98   0.673   0.004  -0.260
    1UNL    H47   99   0.536  -0.082  -0.334
    1UNL    H48  100  -0.257  -0.290   0.137
    1UNL    H49  101  -0.192  -0.132   0.184
    1UNL    H50  102  -0.474  -0.187   0.153
    1UNL    H51  103  -0.314  -0.028   0.297
    1UNL    H52  104  -0.730  -0.022   0.439
    1UNL    H53  105  -0.763   0.074   0.295
    1UNL    H54  106  -0.797  -0.101   0.289
   0.00000   0.00000   0.00000   0.00000   0.00000   0.00000   0.00000   0.00000   0.00000
Generated with MDTraj, t= 98.0
 106
    1UNL     C1    1  -0.652  -0.195  -0.026
    1UNL     C2    2  -0.520  -0.187  -0.091
    1UNL     C3    3  -0.434  -0.069  -0.035
    1UNL     C4    4  -0.500   0.071  -0.029
    1UNL     N1    5  -0.414   0.177   0.025
    1UNL     C5    6  -0.478   0.302   0.056
    1UNL     C6    7  -0.342   0.140   0.149
    1UNL     C7    8  -0.197   0.134   0.124
    1UNL     C8    9  -0.148   0.097  -0.017
    1UNL     C9   10  -0.136  -0.032  -0.078
    1UNL     N2   11  -0.100  -0.026  -0.208
    1UNL    C10   12  -0.054   0.104  -0.228
    1UNL    C11   13  -0.006   0.161  -0.345
    1UNL    C12   14   0.025   0.297  -0.335
    1UNL    C13   15  -0.007   0.378  -0.219
    1UNL    C14   16  -0.057   0.318  -0.105
    1UNL    C15   17  -0.082   0.181  -0.112
    1UNL    C16   18  -0.172  -0.173  -0.024
    1UNL    C17   19  -0.045  -0.257  -0.033
    1UNL    C18   20  -0.064  -0.397  -0.024
    1UNL     O1   21  -0.191  -0.455  -0.055
    1UNL    C19   22  -0.234  -0.491  -0.184
    1UNL    C20   23   0.044  -0.483   0.009
    1UNL    C21   24   0.173  -0.432   0.032
    1UNL    C22   25   0.195  -0.296   0.014
    1UNL    C23   26   0.314  -0.214   0.014
    1UNL    C24   27   0.276  -0.086  -0.015
    1UNL     N3   28   0.139  -0.084  -0.041
    1UNL    C25   29   0.087  -0.211  -0.017
    1UNL    C26   30   0.360   0.038  -0.029
    1UNL    C27   31   0.306   0.142   0.074
    1UNL     O2   32   0.307   0.122   0.194
    1UNL     O3   33   0.264   0.265   0.024
    1UNL    C28   34   0.211   0.343   0.130
    1UNL    C29   35   0.344   0.097  -0.175
    1UNL    C30   36   0.479   0.096  -0.249
    1UNL    C31   37   0.585   0.180  -0.171
    1UNL    C32   38   0.598   0.136  -0.020
    1UNL    C33   39   0.598   0.246   0.086
    1UNL    C34   40   0.715   0.340   0.074
    1UNL    C35   41   0.512   0.004   0.003
    1UNL     N4   42   0.545  -0.094  -0.108
    1UNL    C36   43   0.535  -0.244  -0.097
    1UNL    C37   44   0.449  -0.283   0.025
    1UNL    C38   45   0.529  -0.055  -0.247
    1UNL    C39   46  -0.240  -0.178   0.113
    1UNL    C40   47  -0.379  -0.105   0.113
    1UNL    C41   48  -0.388   0.013   0.216
    1UNL    C42   49  -0.524   0.025   0.284
    1UNL     O4   50  -0.532   0.116   0.364
    1UNL     O5   51  -0.620  -0.061   0.245
    1UNL    C43   52  -0.740  -0.045   0.322
    1UNL     H1   53  -0.705  -0.282  -0.059
    1UNL     H2   54  -0.707  -0.108  -0.055
    1UNL     H3   55  -0.641  -0.211   0.087
    1UNL     H4   56  -0.532  -0.200  -0.201
    1UNL     H5   57  -0.463  -0.279  -0.070
    1UNL     H6   58  -0.341  -0.057  -0.098
    1UNL     H7   59  -0.538   0.093  -0.130
    1UNL     H8   60  -0.589   0.066   0.041
    1UNL     H9   61  -0.519   0.344  -0.038
    1UNL    H10   62  -0.409   0.376   0.088
    1UNL    H11   63  -0.567   0.294   0.123
    1UNL    H12   64  -0.362   0.223   0.222
    1UNL    H13   65  -0.146   0.234   0.146
    1UNL    H14   66  -0.149   0.058   0.184
    1UNL    H15   67  -0.080  -0.105  -0.267
    1UNL    H16   68   0.014   0.103  -0.426
    1UNL    H17   69   0.077   0.350  -0.417
    1UNL    H18   70   0.047   0.474  -0.217
    1UNL    H19   71  -0.071   0.375  -0.015
    1UNL    H20   72  -0.238  -0.221  -0.103
    1UNL    H21   73  -0.264  -0.587  -0.182
    1UNL    H22   74  -0.293  -0.412  -0.217
    1UNL    H23   75  -0.152  -0.489  -0.257
    1UNL    H24   76   0.024  -0.586   0.029
    1UNL    H25   77   0.264  -0.497   0.032
    1UNL    H26   78   0.087  -0.013  -0.090
    1UNL    H27   79   0.283   0.358   0.207
    1UNL    H28   80   0.165   0.437   0.082
    1UNL    H29   81   0.133   0.283   0.172
    1UNL    H30   82   0.275   0.034  -0.224
    1UNL    H31   83   0.299   0.206  -0.175
    1UNL    H32   84   0.472   0.129  -0.354
    1UNL    H33   85   0.676   0.167  -0.243
    1UNL    H34   86   0.570   0.292  -0.176
    1UNL    H35   87   0.701   0.107  -0.021
    1UNL    H36   88   0.607   0.202   0.185
    1UNL    H37   89   0.504   0.295   0.085
    1UNL    H38   90   0.704   0.400  -0.022
    1UNL    H39   91   0.724   0.408   0.153
    1UNL    H40   92   0.816   0.297   0.064
    1UNL    H41   93   0.540  -0.042   0.098
    1UNL    H42   94   0.503  -0.300  -0.187
    1UNL    H43   95   0.639  -0.282  -0.079
    1UNL    H44   96   0.444  -0.396   0.026
    1UNL    H45   97   0.494  -0.254   0.117
    1UNL    H46   98   0.620  -0.062  -0.306
    1UNL    H47   99   0.454  -0.117  -0.299
    1UNL    H48  100  -0.248  -0.286   0.151
    1UNL    H49  101  -0.168  -0.124   0.177
    1UNL    H50  102  -0.457  -0.177   0.143
    1UNL    H51  103  -0.310  -0.007   0.296
    1UNL    H52  104  -0.718  -0.040   0.431
    1UNL    H53  105  -0.788   0.048   0.298
    1UNL    H54  106  -0.804  -0.130   0.299
   0.00000   0.00000   0.00000   0.00000   0.00000   0.00000   0.00000   0.00000   0.00000
Generated with MDTraj, t= 99.0
 106
    1UNL     C1    1  -0.653  -0.200  -0.036
    1UNL     C2    2  -0.519  -0.175  -0.111
    1UNL     C3    3  -0.442  -0.063  -0.034
    1UNL     C4    4  -0.517   0.064  -0.018
    1UNL     N1    5  -0.425   0.172   0.027
    1UNL     C5    6  -0.478   0.300   0.054
    1UNL     C6    7  -0.334   0.126   0.146
    1UNL     C7    8  -0.182   0.130   0.121
    1UNL     C8    9  -0.136   0.102  -0.019
    1UNL     C9   10  -0.132  -0.021  -0.082
    1UNL     N2   11  -0.074   0.004  -0.206
    1UNL    C10   12  -0.044   0.134  -0.228
    1UNL    C11   13   0.019   0.204  -0.335
    1UNL    C12   14   0.004   0.340  -0.335
    1UNL    C13   15  -0.039   0.408  -0.220
    1UNL    C14   16  -0.084   0.342  -0.109
    1UNL    C15   17  -0.086   0.201  -0.110
    1UNL    C16   18  -0.166  -0.170  -0.036
    1UNL    C17   19  -0.041  -0.257  -0.008
    1UNL    C18   20  -0.058  -0.391  -0.007
    1UNL     O1   21  -0.191  -0.450  -0.030
    1UNL    C19   22  -0.223  -0.467  -0.163
    1UNL    C20   23   0.045  -0.483   0.013
    1UNL    C21   24   0.174  -0.445   0.013
    1UNL    C22   25   0.199  -0.305   0.020
    1UNL    C23   26   0.319  -0.223   0.018
    1UNL    C24   27   0.279  -0.092   0.001
    1UNL     N3   28   0.140  -0.086  -0.001
    1UNL    C25   29   0.089  -0.210   0.014
    1UNL    C26   30   0.360   0.033  -0.023
    1UNL    C27   31   0.313   0.131   0.083
    1UNL     O2   32   0.311   0.101   0.199
    1UNL     O3   33   0.276   0.254   0.033
    1UNL    C28   34   0.226   0.330   0.142
    1UNL    C29   35   0.331   0.074  -0.173
    1UNL    C30   36   0.456   0.070  -0.260
    1UNL    C31   37   0.561   0.170  -0.195
    1UNL    C32   38   0.601   0.127  -0.053
    1UNL    C33   39   0.591   0.246   0.052
    1UNL    C34   40   0.714   0.342   0.050
    1UNL    C35   41   0.507   0.007  -0.012
    1UNL     N4   42   0.550  -0.101  -0.107
    1UNL    C36   43   0.551  -0.238  -0.061
    1UNL    C37   44   0.453  -0.260   0.056
    1UNL    C38   45   0.504  -0.084  -0.247
    1UNL    C39   46  -0.245  -0.191   0.090
    1UNL    C40   47  -0.384  -0.121   0.101
    1UNL    C41   48  -0.378  -0.010   0.207
    1UNL    C42   49  -0.512   0.015   0.275
    1UNL     O4   50  -0.529   0.113   0.347
    1UNL     O5   51  -0.609  -0.075   0.239
    1UNL    C43   52  -0.740  -0.045   0.299
    1UNL     H1   53  -0.730  -0.259  -0.089
    1UNL     H2   54  -0.694  -0.104  -0.021
    1UNL     H3   55  -0.640  -0.256   0.061
    1UNL     H4   56  -0.535  -0.151  -0.218
    1UNL     H5   57  -0.466  -0.269  -0.114
    1UNL     H6   58  -0.344  -0.031  -0.082
    1UNL     H7   59  -0.559   0.094  -0.116
    1UNL     H8   60  -0.603   0.052   0.053
    1UNL     H9   61  -0.542   0.334  -0.038
    1UNL    H10   62  -0.400   0.372   0.060
    1UNL    H11   63  -0.548   0.303   0.135
    1UNL    H12   64  -0.352   0.204   0.223
    1UNL    H13   65  -0.141   0.235   0.146
    1UNL    H14   66  -0.134   0.056   0.184
    1UNL    H15   67  -0.067  -0.063  -0.280
    1UNL    H16   68   0.043   0.147  -0.428
    1UNL    H17   69   0.030   0.392  -0.424
    1UNL    H18   70  -0.055   0.512  -0.225
    1UNL    H19   71  -0.127   0.394  -0.023
    1UNL    H20   72  -0.212  -0.217  -0.128
    1UNL    H21   73  -0.321  -0.447  -0.181
    1UNL    H22   74  -0.154  -0.408  -0.217
    1UNL    H23   75  -0.214  -0.572  -0.197
    1UNL    H24   76   0.015  -0.586   0.020
    1UNL    H25   77   0.253  -0.512   0.005
    1UNL    H26   78   0.082  -0.034  -0.064
    1UNL    H27   79   0.291   0.325   0.225
    1UNL    H28   80   0.203   0.436   0.103
    1UNL    H29   81   0.135   0.283   0.172
    1UNL    H30   82   0.255   0.022  -0.226
    1UNL    H31   83   0.301   0.186  -0.173
    1UNL    H32   84   0.433   0.094  -0.363
    1UNL    H33   85   0.661   0.202  -0.252
    1UNL    H34   86   0.498   0.260  -0.197
    1UNL    H35   87   0.700   0.090  -0.053
    1UNL    H36   88   0.591   0.191   0.147
    1UNL    H37   89   0.505   0.307   0.040
    1UNL    H38   90   0.735   0.371  -0.058
    1UNL    H39   91   0.703   0.430   0.106
    1UNL    H40   92   0.809   0.298   0.084
    1UNL    H41   93   0.519  -0.021   0.093
    1UNL    H42   94   0.536  -0.312  -0.142
    1UNL    H43   95   0.654  -0.260  -0.025
    1UNL    H44   96   0.449  -0.371   0.079
    1UNL    H45   97   0.489  -0.213   0.146
    1UNL    H46   98   0.576  -0.104  -0.326
    1UNL    H47   99   0.417  -0.149  -0.269
    1UNL    H48  100  -0.254  -0.305   0.107
    1UNL    H49  101  -0.179  -0.152   0.170
    1UNL    H50  102  -0.459  -0.194   0.138
    1UNL    H51  103  -0.307  -0.044   0.290
    1UNL    H52  104  -0.744  -0.069   0.409
    1UNL    H53  105  -0.761   0.062   0.291
    1UNL    H54  106  -0.817  -0.103   0.247
   0.00000   0.00000   0.00000   0.00000   0.00000   0.00000   0.00000   0.00000   0.00000
