1TPCN04775
19
    1res  C1    1   -0.805   0.064  -0.199
    1res  C2    2   -0.587  -0.154  -0.244
    1res  C3    3   -0.506  -0.026   0.005
    1res  C4    4   -0.636  -0.230   0.106
    1res  C5    5   -0.283  -0.195   0.047
    1res  C6    6   -0.365   0.047   0.209
    1res  C7    7   -0.179   0.077  -0.145
    1res  C8    8   -0.136   0.220   0.151
    1res  C9    9    0.148   0.099   0.099
    1res  C10   10    0.246   0.071  -0.149
    1res  C11   11    0.406  -0.055   0.018
    1res  C12   12    0.642   0.054  -0.006
    1res  C13   13    0.771   0.300  -0.195
    1res  C14   14    0.884   0.085   0.056
    1res  C15   15    0.883  -0.131  -0.126
    1res  C16   16    0.719  -0.208   0.029
    1res  C17   17    0.261  -0.245   0.060
    1res  C18   18    0.007  -0.033   0.284
    1res  C19   19   -0.603   0.214  -0.091
  10.00000  10.00000  10.00000
