1TPCN03363
14
    1res  C1    1    0.142   0.440  -0.174
    1res  C2    2   -0.090   0.193  -0.233
    1res  C3    3   -0.185   0.011  -0.206
    1res  C4    4   -0.247  -0.221  -0.236
    1res  C5    5   -0.154  -0.150   0.058
    1res  C6    6   -0.141  -0.378   0.333
    1res  C7    7    0.106   0.257   0.067
    1res  C8    8   -0.187   0.460   0.185
    1res  C9    9    0.219   0.101  -0.189
    1res  C10   10    0.320  -0.024  -0.003
    1res  C11   11    0.248  -0.123   0.212
    1res  C12   12    0.250  -0.328   0.369
    1res  C13   13    0.411  -0.364   0.130
    1res  C14   14    0.036  -0.071  -0.170
  10.00000  10.00000  10.00000
