1TPCN02357
10
    1res  C1    1   -0.482   0.176   0.051
    1res  C2    2   -0.237   0.213  -0.039
    1res  C3    3   -0.314  -0.089  -0.073
    1res  C4    4   -0.101  -0.019  -0.233
    1res  C5    5    0.030  -0.174   0.114
    1res  C6    6    0.251  -0.022  -0.165
    1res  C7    7    0.243   0.026   0.149
    1res  C8    8    0.596   0.023   0.030
    1res  C9    9    0.012   0.140   0.149
    1res  C10   10   -0.326  -0.055   0.210
  10.00000  10.00000  10.00000
