[ moleculetype ]
; name        nrexcl
res           1

[ atoms ]
;    nr  type resnr resid  atom  cgnr     charge       mass
      1 SC4       1 res   C1        1      0.000     54.000
      2 TN6a      1 res   C2        2      0.000     36.000
      3 TN4a      1 res   C3        3      0.000     36.000
      4 SC2       1 res   C4        4      0.000     54.000
      5 SC2       1 res   C5        5      0.000     54.000
      6 SN4a      1 res   C6        6      0.000     54.000
      7 SP1       1 res   C7        7      0.000     54.000

[ bonds ]
;  ai    aj   funct      b0(nm)        k
    1     2     1      0.26353    20000
    1     3     1      0.28950    20000
    1     7     1      0.31192    20000
    2     3     1      0.25677    20000
    3     4     1      0.28163    20000
    4     5     1      0.37612    20000
    5     6     1      0.30870    20000
    5     7     1      0.37964    20000
