1TPCN06031
17
    1res  C1    1   -0.557  -0.140   0.356
    1res  C2    2   -0.310  -0.206   0.112
    1res  C3    3   -0.216  -0.040   0.002
    1res  C4    4    0.030  -0.046   0.096
    1res  C5    5    0.108  -0.265   0.002
    1res  C6    6    0.214   0.028   0.099
    1res  C7    7    0.477  -0.228   0.001
    1res  C8    8    0.538   0.006   0.049
    1res  C9    9    0.743   0.151  -0.040
    1res  C10   10    0.983   0.176  -0.078
    1res  C11   11    0.958  -0.081  -0.018
    1res  C12   12    0.896   0.027   0.189
    1res  C13   13    0.377   0.109  -0.134
    1res  C14   14   -0.095   0.174  -0.109
    1res  C15   15   -0.511   0.151   0.054
    1res  C16   16   -0.563   0.140  -0.215
    1res  C17   17   -0.883   0.072  -0.163
  10.00000  10.00000  10.00000
