Generated with MDTraj, t= 0.0
 50
    1UNL     C1    1  -0.476  -0.080  -0.060
    1UNL     C2    2  -0.447   0.065  -0.024
    1UNL     C3    3  -0.299   0.104  -0.009
    1UNL     C4    4  -0.214   0.016   0.088
    1UNL     C5    5  -0.163  -0.108   0.009
    1UNL     C6    6  -0.053  -0.060  -0.089
    1UNL     C7    7   0.086  -0.095  -0.025
    1UNL     N1    8   0.210  -0.116  -0.104
    1UNL     C8    9   0.213  -0.114  -0.249
    1UNL     C9   10   0.322  -0.090  -0.019
    1UNL    C10   11   0.456  -0.123  -0.036
    1UNL    C11   12   0.544  -0.095   0.066
    1UNL    C12   13   0.501  -0.035   0.184
    1UNL    C13   14   0.368  -0.001   0.201
    1UNL    C14   15   0.279  -0.029   0.100
    1UNL    C15   16   0.133   0.010   0.081
    1UNL    C16   17   0.123   0.150   0.016
    1UNL    C17   18  -0.028   0.167   0.006
    1UNL    C18   19  -0.091   0.101   0.134
    1UNL    C19   20   0.027   0.017   0.197
    1UNL     O1   21   0.079   0.077   0.315
    1UNL     N2   22  -0.073   0.088  -0.114
    1UNL    C20   23  -0.218   0.115  -0.143
    1UNL     O2   24  -0.267   0.028  -0.245
    1UNL     H1   25  -0.583  -0.097  -0.075
    1UNL     H2   26  -0.426  -0.109  -0.152
    1UNL     H3   27  -0.444  -0.148   0.019
    1UNL     H4   28  -0.499   0.088   0.071
    1UNL     H5   29  -0.494   0.131  -0.098
    1UNL     H6   30  -0.298   0.205   0.034
    1UNL     H7   31  -0.275  -0.016   0.174
    1UNL     H8   32  -0.125  -0.185   0.077
    1UNL     H9   33  -0.243  -0.154  -0.047
    1UNL    H10   34  -0.062  -0.110  -0.187
    1UNL    H11   35   0.072  -0.190   0.028
    1UNL    H12   36   0.178  -0.018  -0.286
    1UNL    H13   37   0.148  -0.192  -0.288
    1UNL    H14   38   0.314  -0.132  -0.286
    1UNL    H15   39   0.489  -0.171  -0.126
    1UNL    H16   40   0.648  -0.120   0.055
    1UNL    H17   41   0.572  -0.014   0.262
    1UNL    H18   42   0.333   0.047   0.291
    1UNL    H19   43   0.170   0.227   0.078
    1UNL    H20   44   0.170   0.151  -0.083
    1UNL    H21   45  -0.058   0.272  -0.006
    1UNL    H22   46  -0.122   0.178   0.206
    1UNL    H23   47  -0.007  -0.083   0.225
    1UNL    H24   48   0.108   0.169   0.294
    1UNL    H25   49  -0.223   0.217  -0.183
    1UNL    H26   50  -0.354   0.060  -0.278
   0.00000   0.00000   0.00000   0.00000   0.00000   0.00000   0.00000   0.00000   0.00000
Generated with MDTraj, t= 1.0
 50
    1UNL     C1    1  -0.475  -0.090  -0.059
    1UNL     C2    2  -0.453   0.053  -0.012
    1UNL     C3    3  -0.308   0.095   0.007
    1UNL     C4    4  -0.209   0.006   0.093
    1UNL     C5    5  -0.156  -0.114   0.005
    1UNL     C6    6  -0.052  -0.056  -0.094
    1UNL     C7    7   0.092  -0.083  -0.033
    1UNL     N1    8   0.219  -0.117  -0.115
    1UNL     C8    9   0.240  -0.104  -0.253
    1UNL     C9   10   0.320  -0.098  -0.019
    1UNL    C10   11   0.448  -0.153  -0.023
    1UNL    C11   12   0.531  -0.117   0.084
    1UNL    C12   13   0.493  -0.047   0.195
    1UNL    C13   14   0.367   0.006   0.201
    1UNL    C14   15   0.282  -0.018   0.094
    1UNL    C15   16   0.141   0.030   0.065
    1UNL    C16   17   0.121   0.167   0.006
    1UNL    C17   18  -0.029   0.171   0.002
    1UNL    C18   19  -0.093   0.100   0.131
    1UNL    C19   20   0.037   0.025   0.187
    1UNL     O1   21   0.080   0.085   0.306
    1UNL     N2   22  -0.086   0.093  -0.110
    1UNL    C20   23  -0.233   0.119  -0.131
    1UNL     O2   24  -0.281   0.044  -0.242
    1UNL     H1   25  -0.580  -0.107  -0.087
    1UNL     H2   26  -0.418  -0.115  -0.149
    1UNL     H3   27  -0.464  -0.160   0.020
    1UNL     H4   28  -0.522   0.079   0.069
    1UNL     H5   29  -0.499   0.107  -0.097
    1UNL     H6   30  -0.298   0.199   0.045
    1UNL     H7   31  -0.257  -0.039   0.189
    1UNL     H8   32  -0.105  -0.189   0.067
    1UNL     H9   33  -0.236  -0.155  -0.052
    1UNL    H10   34  -0.062  -0.116  -0.183
    1UNL    H11   35   0.069  -0.174   0.022
    1UNL    H12   36   0.207  -0.018  -0.309
    1UNL    H13   37   0.172  -0.183  -0.294
    1UNL    H14   38   0.338  -0.143  -0.263
    1UNL    H15   39   0.484  -0.205  -0.107
    1UNL    H16   40   0.637  -0.127   0.056
    1UNL    H17   41   0.563   0.001   0.262
    1UNL    H18   42   0.348   0.087   0.274
    1UNL    H19   43   0.163   0.250   0.065
    1UNL    H20   44   0.169   0.167  -0.091
    1UNL    H21   45  -0.061   0.276   0.005
    1UNL    H22   46  -0.120   0.173   0.200
    1UNL    H23   47   0.013  -0.076   0.217
    1UNL    H24   48   0.128   0.174   0.278
    1UNL    H25   49  -0.241   0.218  -0.174
    1UNL    H26   50  -0.227  -0.025  -0.274
   0.00000   0.00000   0.00000   0.00000   0.00000   0.00000   0.00000   0.00000   0.00000
Generated with MDTraj, t= 2.0
 50
    1UNL     C1    1  -0.484  -0.089  -0.061
    1UNL     C2    2  -0.448   0.050  -0.003
    1UNL     C3    3  -0.302   0.093   0.004
    1UNL     C4    4  -0.208   0.007   0.091
    1UNL     C5    5  -0.153  -0.111   0.005
    1UNL     C6    6  -0.044  -0.062  -0.094
    1UNL     C7    7   0.090  -0.086  -0.028
    1UNL     N1    8   0.209  -0.105  -0.107
    1UNL     C8    9   0.204  -0.107  -0.247
    1UNL     C9   10   0.323  -0.090  -0.024
    1UNL    C10   11   0.456  -0.127  -0.030
    1UNL    C11   12   0.536  -0.106   0.080
    1UNL    C12   13   0.496  -0.058   0.201
    1UNL    C13   14   0.361  -0.014   0.211
    1UNL    C14   15   0.280  -0.028   0.099
    1UNL    C15   16   0.138   0.027   0.072
    1UNL    C16   17   0.123   0.161  -0.003
    1UNL    C17   18  -0.027   0.168  -0.005
    1UNL    C18   19  -0.091   0.099   0.128
    1UNL    C19   20   0.035   0.034   0.192
    1UNL     O1   21   0.081   0.090   0.309
    1UNL     N2   22  -0.073   0.089  -0.123
    1UNL    C20   23  -0.221   0.114  -0.137
    1UNL     O2   24  -0.279   0.045  -0.248
    1UNL     H1   25  -0.592  -0.106  -0.069
    1UNL     H2   26  -0.445  -0.121  -0.159
    1UNL     H3   27  -0.471  -0.158   0.017
    1UNL     H4   28  -0.501   0.061   0.094
    1UNL     H5   29  -0.508   0.125  -0.059
    1UNL     H6   30  -0.295   0.196   0.046
    1UNL     H7   31  -0.267  -0.040   0.186
    1UNL     H8   32  -0.107  -0.184   0.074
    1UNL     H9   33  -0.233  -0.157  -0.051
    1UNL    H10   34  -0.039  -0.111  -0.190
    1UNL    H11   35   0.082  -0.176   0.035
    1UNL    H12   36   0.147  -0.026  -0.292
    1UNL    H13   37   0.139  -0.191  -0.286
    1UNL    H14   38   0.300  -0.121  -0.283
    1UNL    H15   39   0.505  -0.179  -0.119
    1UNL    H16   40   0.640  -0.130   0.081
    1UNL    H17   41   0.576  -0.040   0.279
    1UNL    H18   42   0.325   0.042   0.292
    1UNL    H19   43   0.168   0.250   0.044
    1UNL    H20   44   0.166   0.166  -0.102
    1UNL    H21   45  -0.063   0.270  -0.014
    1UNL    H22   46  -0.122   0.182   0.178
    1UNL    H23   47   0.018  -0.070   0.212
    1UNL    H24   48   0.140   0.174   0.281
    1UNL    H25   49  -0.240   0.217  -0.164
    1UNL    H26   50  -0.204  -0.019  -0.269
   0.00000   0.00000   0.00000   0.00000   0.00000   0.00000   0.00000   0.00000   0.00000
Generated with MDTraj, t= 3.0
 50
    1UNL     C1    1  -0.480  -0.080  -0.063
    1UNL     C2    2  -0.445   0.069  -0.038
    1UNL     C3    3  -0.297   0.111  -0.008
    1UNL     C4    4  -0.221   0.019   0.092
    1UNL     C5    5  -0.166  -0.110   0.020
    1UNL     C6    6  -0.058  -0.064  -0.080
    1UNL     C7    7   0.078  -0.097  -0.028
    1UNL     N1    8   0.212  -0.089  -0.108
    1UNL     C8    9   0.224  -0.122  -0.254
    1UNL     C9   10   0.319  -0.088  -0.022
    1UNL    C10   11   0.455  -0.114  -0.042
    1UNL    C11   12   0.545  -0.086   0.055
    1UNL    C12   13   0.503  -0.041   0.179
    1UNL    C13   14   0.371  -0.016   0.202
    1UNL    C14   15   0.277  -0.037   0.101
    1UNL    C15   16   0.125   0.004   0.085
    1UNL    C16   17   0.122   0.150   0.020
    1UNL    C17   18  -0.031   0.169   0.008
    1UNL    C18   19  -0.094   0.110   0.138
    1UNL    C19   20   0.027   0.024   0.202
    1UNL     O1   21   0.083   0.079   0.316
    1UNL     N2   22  -0.076   0.085  -0.112
    1UNL    C20   23  -0.215   0.110  -0.147
    1UNL     O2   24  -0.265   0.017  -0.235
    1UNL     H1   25  -0.585  -0.085  -0.086
    1UNL     H2   26  -0.426  -0.137  -0.139
    1UNL     H3   27  -0.477  -0.124   0.034
    1UNL     H4   28  -0.521   0.116   0.031
    1UNL     H5   29  -0.462   0.126  -0.132
    1UNL     H6   30  -0.296   0.217   0.030
    1UNL     H7   31  -0.283  -0.003   0.192
    1UNL     H8   32  -0.125  -0.177   0.095
    1UNL     H9   33  -0.249  -0.162  -0.029
    1UNL    H10   34  -0.071  -0.116  -0.173
    1UNL    H11   35   0.082  -0.201   0.009
    1UNL    H12   36   0.168  -0.041  -0.293
    1UNL    H13   37   0.177  -0.214  -0.297
    1UNL    H14   38   0.321  -0.118  -0.296
    1UNL    H15   39   0.486  -0.172  -0.120
    1UNL    H16   40   0.649  -0.123   0.046
    1UNL    H17   41   0.568  -0.048   0.257
    1UNL    H18   42   0.343   0.013   0.306
    1UNL    H19   43   0.179   0.224   0.082
    1UNL    H20   44   0.181   0.165  -0.070
    1UNL    H21   45  -0.062   0.270  -0.016
    1UNL    H22   46  -0.127   0.176   0.210
    1UNL    H23   47  -0.013  -0.067   0.239
    1UNL    H24   48   0.145   0.157   0.295
    1UNL    H25   49  -0.229   0.205  -0.197
    1UNL    H26   50  -0.189   0.003  -0.302
   0.00000   0.00000   0.00000   0.00000   0.00000   0.00000   0.00000   0.00000   0.00000
Generated with MDTraj, t= 4.0
 50
    1UNL     C1    1  -0.480  -0.065  -0.053
    1UNL     C2    2  -0.447   0.081  -0.018
    1UNL     C3    3  -0.295   0.111  -0.004
    1UNL     C4    4  -0.217   0.010   0.081
    1UNL     C5    5  -0.173  -0.111  -0.006
    1UNL     C6    6  -0.046  -0.066  -0.088
    1UNL     C7    7   0.083  -0.100  -0.016
    1UNL     N1    8   0.207  -0.124  -0.096
    1UNL     C8    9   0.202  -0.146  -0.240
    1UNL     C9   10   0.323  -0.083  -0.017
    1UNL    C10   11   0.463  -0.111  -0.039
    1UNL    C11   12   0.553  -0.082   0.057
    1UNL    C12   13   0.508  -0.017   0.168
    1UNL    C13   14   0.377   0.008   0.194
    1UNL    C14   15   0.283  -0.020   0.100
    1UNL    C15   16   0.135   0.003   0.086
    1UNL    C16   17   0.117   0.148   0.023
    1UNL    C17   18  -0.032   0.158   0.007
    1UNL    C18   19  -0.093   0.086   0.132
    1UNL    C19   20   0.019   0.004   0.202
    1UNL     O1   21   0.068   0.069   0.322
    1UNL     N2   22  -0.068   0.085  -0.115
    1UNL    C20   23  -0.214   0.119  -0.150
    1UNL     O2   24  -0.265   0.037  -0.255
    1UNL     H1   25  -0.582  -0.078  -0.028
    1UNL     H2   26  -0.461  -0.098  -0.152
    1UNL     H3   27  -0.424  -0.114   0.026
    1UNL     H4   28  -0.499   0.118   0.076
    1UNL     H5   29  -0.479   0.148  -0.102
    1UNL     H6   30  -0.295   0.216   0.037
    1UNL     H7   31  -0.297  -0.007   0.164
    1UNL     H8   32  -0.163  -0.194   0.063
    1UNL     H9   33  -0.257  -0.141  -0.070
    1UNL    H10   34  -0.045  -0.123  -0.178
    1UNL    H11   35   0.072  -0.194   0.041
    1UNL    H12   36   0.135  -0.076  -0.277
    1UNL    H13   37   0.184  -0.252  -0.265
    1UNL    H14   38   0.299  -0.121  -0.287
    1UNL    H15   39   0.499  -0.156  -0.136
    1UNL    H16   40   0.655  -0.103   0.044
    1UNL    H17   41   0.583   0.006   0.253
    1UNL    H18   42   0.344   0.038   0.288
    1UNL    H19   43   0.161   0.231   0.085
    1UNL    H20   44   0.181   0.169  -0.062
    1UNL    H21   45  -0.074   0.259  -0.003
    1UNL    H22   46  -0.131   0.165   0.196
    1UNL    H23   47  -0.008  -0.093   0.237
    1UNL    H24   48   0.057   0.163   0.325
    1UNL    H25   49  -0.209   0.221  -0.192
    1UNL    H26   50  -0.218   0.032  -0.334
   0.00000   0.00000   0.00000   0.00000   0.00000   0.00000   0.00000   0.00000   0.00000
Generated with MDTraj, t= 5.0
 50
    1UNL     C1    1  -0.483  -0.071  -0.087
    1UNL     C2    2  -0.460   0.067  -0.017
    1UNL     C3    3  -0.303   0.115   0.000
    1UNL     C4    4  -0.225   0.023   0.088
    1UNL     C5    5  -0.170  -0.102   0.008
    1UNL     C6    6  -0.061  -0.057  -0.088
    1UNL     C7    7   0.082  -0.101  -0.030
    1UNL     N1    8   0.216  -0.130  -0.106
    1UNL     C8    9   0.229  -0.171  -0.246
    1UNL     C9   10   0.328  -0.096  -0.021
    1UNL    C10   11   0.464  -0.121  -0.030
    1UNL    C11   12   0.549  -0.070   0.072
    1UNL    C12   13   0.496  -0.004   0.176
    1UNL    C13   14   0.360   0.010   0.192
    1UNL    C14   15   0.275  -0.028   0.093
    1UNL    C15   16   0.132   0.005   0.074
    1UNL    C16   17   0.128   0.143   0.017
    1UNL    C17   18  -0.019   0.167   0.009
    1UNL    C18   19  -0.088   0.097   0.140
    1UNL    C19   20   0.032   0.006   0.194
    1UNL     O1   21   0.091   0.062   0.313
    1UNL     N2   22  -0.075   0.095  -0.105
    1UNL    C20   23  -0.223   0.121  -0.133
    1UNL     O2   24  -0.275   0.042  -0.235
    1UNL     H1   25  -0.587  -0.091  -0.096
    1UNL     H2   26  -0.445  -0.090  -0.183
    1UNL     H3   27  -0.440  -0.138  -0.015
    1UNL     H4   28  -0.505   0.073   0.087
    1UNL     H5   29  -0.515   0.147  -0.074
    1UNL     H6   30  -0.297   0.217   0.047
    1UNL     H7   31  -0.266  -0.016   0.185
    1UNL     H8   32  -0.150  -0.185   0.074
    1UNL     H9   33  -0.251  -0.146  -0.056
    1UNL    H10   34  -0.077  -0.098  -0.184
    1UNL    H11   35   0.068  -0.199   0.022
    1UNL    H12   36   0.263  -0.100  -0.314
    1UNL    H13   37   0.135  -0.225  -0.262
    1UNL    H14   38   0.292  -0.266  -0.256
    1UNL    H15   39   0.504  -0.146  -0.124
    1UNL    H16   40   0.661  -0.060   0.064
    1UNL    H17   41   0.559   0.052   0.234
    1UNL    H18   42   0.328   0.053   0.290
    1UNL    H19   43   0.196   0.220   0.066
    1UNL    H20   44   0.186   0.142  -0.075
    1UNL    H21   45  -0.048   0.271   0.004
    1UNL    H22   46  -0.119   0.168   0.223
    1UNL    H23   47  -0.000  -0.094   0.214
    1UNL    H24   48   0.065   0.150   0.309
    1UNL    H25   49  -0.214   0.228  -0.169
    1UNL    H26   50  -0.251   0.074  -0.331
   0.00000   0.00000   0.00000   0.00000   0.00000   0.00000   0.00000   0.00000   0.00000
Generated with MDTraj, t= 6.0
 50
    1UNL     C1    1  -0.487  -0.074  -0.087
    1UNL     C2    2  -0.446   0.053  -0.018
    1UNL     C3    3  -0.305   0.101  -0.003
    1UNL     C4    4  -0.212   0.009   0.092
    1UNL     C5    5  -0.162  -0.115  -0.002
    1UNL     C6    6  -0.046  -0.060  -0.090
    1UNL     C7    7   0.098  -0.083  -0.030
    1UNL     N1    8   0.210  -0.086  -0.120
    1UNL     C8    9   0.212  -0.190  -0.214
    1UNL     C9   10   0.326  -0.068  -0.033
    1UNL    C10   11   0.458  -0.114  -0.046
    1UNL    C11   12   0.548  -0.103   0.058
    1UNL    C12   13   0.507  -0.045   0.176
    1UNL    C13   14   0.377  -0.001   0.196
    1UNL    C14   15   0.284  -0.015   0.095
    1UNL    C15   16   0.135   0.021   0.089
    1UNL    C16   17   0.116   0.154   0.025
    1UNL    C17   18  -0.030   0.163   0.012
    1UNL    C18   19  -0.089   0.092   0.137
    1UNL    C19   20   0.023   0.015   0.202
    1UNL     O1   21   0.069   0.091   0.322
    1UNL     N2   22  -0.077   0.090  -0.112
    1UNL    C20   23  -0.226   0.121  -0.134
    1UNL     O2   24  -0.274   0.048  -0.241
    1UNL     H1   25  -0.590  -0.069  -0.102
    1UNL     H2   26  -0.454  -0.098  -0.185
    1UNL     H3   27  -0.464  -0.154  -0.020
    1UNL     H4   28  -0.505   0.053   0.080
    1UNL     H5   29  -0.496   0.141  -0.072
    1UNL     H6   30  -0.308   0.201   0.048
    1UNL     H7   31  -0.276  -0.038   0.163
    1UNL     H8   32  -0.123  -0.198   0.052
    1UNL     H9   33  -0.250  -0.163  -0.053
    1UNL    H10   34  -0.047  -0.109  -0.182
    1UNL    H11   35   0.093  -0.184   0.017
    1UNL    H12   36   0.311  -0.213  -0.245
    1UNL    H13   37   0.145  -0.166  -0.292
    1UNL    H14   38   0.165  -0.286  -0.173
    1UNL    H15   39   0.498  -0.166  -0.134
    1UNL    H16   40   0.644  -0.130   0.032
    1UNL    H17   41   0.582  -0.030   0.258
    1UNL    H18   42   0.353   0.036   0.293
    1UNL    H19   43   0.162   0.237   0.087
    1UNL    H20   44   0.179   0.173  -0.061
    1UNL    H21   45  -0.063   0.267   0.005
    1UNL    H22   46  -0.125   0.186   0.199
    1UNL    H23   47   0.003  -0.088   0.222
    1UNL    H24   48   0.072   0.188   0.311
    1UNL    H25   49  -0.233   0.232  -0.157
    1UNL    H26   50  -0.213   0.052  -0.322
   0.00000   0.00000   0.00000   0.00000   0.00000   0.00000   0.00000   0.00000   0.00000
Generated with MDTraj, t= 7.0
 50
    1UNL     C1    1  -0.459  -0.103  -0.074
    1UNL     C2    2  -0.441   0.044  -0.019
    1UNL     C3    3  -0.300   0.100  -0.007
    1UNL     C4    4  -0.209   0.012   0.094
    1UNL     C5    5  -0.154  -0.095   0.007
    1UNL     C6    6  -0.060  -0.043  -0.095
    1UNL     C7    7   0.087  -0.078  -0.037
    1UNL     N1    8   0.207  -0.083  -0.118
    1UNL     C8    9   0.203  -0.184  -0.220
    1UNL     C9   10   0.319  -0.070  -0.035
    1UNL    C10   11   0.451  -0.115  -0.043
    1UNL    C11   12   0.532  -0.103   0.067
    1UNL    C12   13   0.491  -0.049   0.186
    1UNL    C13   14   0.363  -0.008   0.199
    1UNL    C14   15   0.274  -0.025   0.092
    1UNL    C15   16   0.129   0.023   0.080
    1UNL    C16   17   0.117   0.164   0.019
    1UNL    C17   18  -0.033   0.178   0.012
    1UNL    C18   19  -0.091   0.109   0.136
    1UNL    C19   20   0.030   0.020   0.194
    1UNL     O1   21   0.095   0.071   0.319
    1UNL     N2   22  -0.074   0.101  -0.114
    1UNL    C20   23  -0.222   0.120  -0.138
    1UNL     O2   24  -0.265   0.037  -0.236
    1UNL     H1   25  -0.556  -0.121  -0.110
    1UNL     H2   26  -0.406  -0.130  -0.164
    1UNL     H3   27  -0.435  -0.174  -0.002
    1UNL     H4   28  -0.512   0.059   0.070
    1UNL     H5   29  -0.497   0.106  -0.097
    1UNL     H6   30  -0.290   0.193   0.053
    1UNL     H7   31  -0.261  -0.028   0.173
    1UNL     H8   32  -0.103  -0.162   0.073
    1UNL     H9   33  -0.234  -0.146  -0.048
    1UNL    H10   34  -0.071  -0.092  -0.186
    1UNL    H11   35   0.077  -0.180   0.002
    1UNL    H12   36   0.301  -0.237  -0.217
    1UNL    H13   37   0.180  -0.137  -0.310
    1UNL    H14   38   0.125  -0.261  -0.202
    1UNL    H15   39   0.472  -0.182  -0.127
    1UNL    H16   40   0.631  -0.159   0.073
    1UNL    H17   41   0.557  -0.060   0.271
    1UNL    H18   42   0.327   0.036   0.292
    1UNL    H19   43   0.161   0.245   0.085
    1UNL    H20   44   0.182   0.185  -0.066
    1UNL    H21   45  -0.071   0.279   0.000
    1UNL    H22   46  -0.128   0.172   0.230
    1UNL    H23   47   0.003  -0.080   0.216
    1UNL    H24   48   0.136   0.163   0.294
    1UNL    H25   49  -0.230   0.228  -0.171
    1UNL    H26   50  -0.211   0.047  -0.310
   0.00000   0.00000   0.00000   0.00000   0.00000   0.00000   0.00000   0.00000   0.00000
Generated with MDTraj, t= 8.0
 50
    1UNL     C1    1  -0.478  -0.087  -0.059
    1UNL     C2    2  -0.453   0.053  -0.013
    1UNL     C3    3  -0.314   0.093  -0.001
    1UNL     C4    4  -0.216   0.007   0.089
    1UNL     C5    5  -0.159  -0.114  -0.001
    1UNL     C6    6  -0.049  -0.050  -0.099
    1UNL     C7    7   0.087  -0.092  -0.032
    1UNL     N1    8   0.217  -0.116  -0.101
    1UNL     C8    9   0.234  -0.151  -0.244
    1UNL     C9   10   0.328  -0.086  -0.014
    1UNL    C10   11   0.460  -0.128  -0.037
    1UNL    C11   12   0.541  -0.102   0.069
    1UNL    C12   13   0.504  -0.045   0.192
    1UNL    C13   14   0.377  -0.000   0.202
    1UNL    C14   15   0.287  -0.024   0.105
    1UNL    C15   16   0.139   0.014   0.074
    1UNL    C16   17   0.118   0.156   0.007
    1UNL    C17   18  -0.035   0.172   0.007
    1UNL    C18   19  -0.095   0.101   0.133
    1UNL    C19   20   0.033   0.023   0.186
    1UNL     O1   21   0.083   0.091   0.308
    1UNL     N2   22  -0.078   0.098  -0.114
    1UNL    C20   23  -0.236   0.121  -0.134
    1UNL     O2   24  -0.292   0.060  -0.243
    1UNL     H1   25  -0.580  -0.104  -0.081
    1UNL     H2   26  -0.437  -0.111  -0.154
    1UNL     H3   27  -0.449  -0.157   0.012
    1UNL     H4   28  -0.506   0.059   0.089
    1UNL     H5   29  -0.511   0.129  -0.077
    1UNL     H6   30  -0.314   0.187   0.061
    1UNL     H7   31  -0.271  -0.023   0.168
    1UNL     H8   32  -0.126  -0.191   0.068
    1UNL     H9   33  -0.242  -0.149  -0.060
    1UNL    H10   34  -0.047  -0.084  -0.198
    1UNL    H11   35   0.062  -0.179   0.029
    1UNL    H12   36   0.338  -0.196  -0.251
    1UNL    H13   37   0.222  -0.061  -0.300
    1UNL    H14   38   0.164  -0.227  -0.270
    1UNL    H15   39   0.486  -0.180  -0.124
    1UNL    H16   40   0.638  -0.138   0.068
    1UNL    H17   41   0.570  -0.035   0.276
    1UNL    H18   42   0.340   0.060   0.285
    1UNL    H19   43   0.162   0.242   0.065
    1UNL    H20   44   0.174   0.171  -0.084
    1UNL    H21   45  -0.069   0.274   0.000
    1UNL    H22   46  -0.129   0.187   0.207
    1UNL    H23   47   0.001  -0.073   0.217
    1UNL    H24   48   0.140   0.173   0.278
    1UNL    H25   49  -0.249   0.230  -0.159
    1UNL    H26   50  -0.225   0.039  -0.317
   0.00000   0.00000   0.00000   0.00000   0.00000   0.00000   0.00000   0.00000   0.00000
Generated with MDTraj, t= 9.0
 50
    1UNL     C1    1  -0.478  -0.061  -0.068
    1UNL     C2    2  -0.446   0.079  -0.008
    1UNL     C3    3  -0.295   0.102   0.003
    1UNL     C4    4  -0.211   0.013   0.091
    1UNL     C5    5  -0.156  -0.108   0.014
    1UNL     C6    6  -0.050  -0.064  -0.087
    1UNL     C7    7   0.087  -0.099  -0.026
    1UNL     N1    8   0.209  -0.129  -0.105
    1UNL     C8    9   0.210  -0.106  -0.251
    1UNL     C9   10   0.318  -0.093  -0.024
    1UNL    C10   11   0.450  -0.126  -0.034
    1UNL    C11   12   0.533  -0.096   0.076
    1UNL    C12   13   0.490  -0.024   0.189
    1UNL    C13   14   0.359   0.015   0.198
    1UNL    C14   15   0.282  -0.023   0.091
    1UNL    C15   16   0.138   0.009   0.072
    1UNL    C16   17   0.123   0.149   0.011
    1UNL    C17   18  -0.031   0.168   0.002
    1UNL    C18   19  -0.088   0.097   0.135
    1UNL    C19   20   0.031   0.011   0.189
    1UNL     O1   21   0.079   0.069   0.309
    1UNL     N2   22  -0.076   0.081  -0.115
    1UNL    C20   23  -0.223   0.110  -0.142
    1UNL     O2   24  -0.264   0.020  -0.240
    1UNL     H1   25  -0.576  -0.079  -0.103
    1UNL     H2   26  -0.429  -0.070  -0.162
    1UNL     H3   27  -0.446  -0.134  -0.002
    1UNL     H4   28  -0.485   0.078   0.100
    1UNL     H5   29  -0.494   0.171  -0.059
    1UNL     H6   30  -0.285   0.204   0.048
    1UNL     H7   31  -0.257  -0.029   0.176
    1UNL     H8   32  -0.117  -0.176   0.091
    1UNL     H9   33  -0.241  -0.160  -0.025
    1UNL    H10   34  -0.069  -0.116  -0.174
    1UNL    H11   35   0.074  -0.197   0.019
    1UNL    H12   36   0.311  -0.139  -0.287
    1UNL    H13   37   0.197   0.001  -0.271
    1UNL    H14   38   0.141  -0.170  -0.298
    1UNL    H15   39   0.492  -0.158  -0.133
    1UNL    H16   40   0.643  -0.103   0.055
    1UNL    H17   41   0.559   0.016   0.267
    1UNL    H18   42   0.333   0.079   0.277
    1UNL    H19   43   0.173   0.228   0.073
    1UNL    H20   44   0.165   0.158  -0.087
    1UNL    H21   45  -0.074   0.267  -0.005
    1UNL    H22   46  -0.117   0.170   0.220
    1UNL    H23   47  -0.004  -0.083   0.225
    1UNL    H24   48   0.116   0.159   0.286
    1UNL    H25   49  -0.233   0.207  -0.195
    1UNL    H26   50  -0.185  -0.018  -0.300
   0.00000   0.00000   0.00000   0.00000   0.00000   0.00000   0.00000   0.00000   0.00000
Generated with MDTraj, t= 10.0
 50
    1UNL     C1    1  -0.491  -0.065  -0.056
    1UNL     C2    2  -0.451   0.077  -0.036
    1UNL     C3    3  -0.299   0.106  -0.015
    1UNL     C4    4  -0.218   0.019   0.087
    1UNL     C5    5  -0.161  -0.114   0.022
    1UNL     C6    6  -0.056  -0.067  -0.087
    1UNL     C7    7   0.082  -0.097  -0.020
    1UNL     N1    8   0.208  -0.120  -0.095
    1UNL     C8    9   0.205  -0.088  -0.239
    1UNL     C9   10   0.323  -0.095  -0.015
    1UNL    C10   11   0.457  -0.113  -0.050
    1UNL    C11   12   0.558  -0.084   0.046
    1UNL    C12   13   0.518  -0.037   0.170
    1UNL    C13   14   0.377  -0.009   0.199
    1UNL    C14   15   0.281  -0.041   0.107
    1UNL    C15   16   0.130   0.005   0.093
    1UNL    C16   17   0.130   0.140   0.024
    1UNL    C17   18  -0.022   0.161   0.004
    1UNL    C18   19  -0.091   0.102   0.131
    1UNL    C19   20   0.014   0.019   0.204
    1UNL     O1   21   0.065   0.083   0.317
    1UNL     N2   22  -0.072   0.081  -0.116
    1UNL    C20   23  -0.215   0.109  -0.147
    1UNL     O2   24  -0.269   0.016  -0.244
    1UNL     H1   25  -0.587  -0.078  -0.101
    1UNL     H2   26  -0.435  -0.091  -0.141
    1UNL     H3   27  -0.460  -0.125   0.025
    1UNL     H4   28  -0.503   0.127   0.052
    1UNL     H5   29  -0.477   0.134  -0.133
    1UNL     H6   30  -0.302   0.214   0.018
    1UNL     H7   31  -0.270  -0.007   0.184
    1UNL     H8   32  -0.122  -0.180   0.100
    1UNL     H9   33  -0.241  -0.171  -0.019
    1UNL    H10   34  -0.065  -0.117  -0.177
    1UNL    H11   35   0.074  -0.194   0.029
    1UNL    H12   36   0.299  -0.067  -0.287
    1UNL    H13   37   0.144   0.007  -0.253
    1UNL    H14   38   0.168  -0.172  -0.291
    1UNL    H15   39   0.484  -0.134  -0.147
    1UNL    H16   40   0.660  -0.086   0.015
    1UNL    H17   41   0.593  -0.008   0.237
    1UNL    H18   42   0.335   0.025   0.297
    1UNL    H19   43   0.180   0.222   0.082
    1UNL    H20   44   0.173   0.135  -0.074
    1UNL    H21   45  -0.049   0.263  -0.013
    1UNL    H22   46  -0.126   0.190   0.189
    1UNL    H23   47  -0.012  -0.079   0.235
    1UNL    H24   48   0.111   0.161   0.291
    1UNL    H25   49  -0.212   0.200  -0.206
    1UNL    H26   50  -0.195  -0.028  -0.285
   0.00000   0.00000   0.00000   0.00000   0.00000   0.00000   0.00000   0.00000   0.00000
Generated with MDTraj, t= 11.0
 50
    1UNL     C1    1  -0.481  -0.082  -0.068
    1UNL     C2    2  -0.446   0.064  -0.033
    1UNL     C3    3  -0.295   0.108  -0.010
    1UNL     C4    4  -0.209   0.020   0.095
    1UNL     C5    5  -0.162  -0.107   0.022
    1UNL     C6    6  -0.054  -0.063  -0.079
    1UNL     C7    7   0.086  -0.099  -0.022
    1UNL     N1    8   0.210  -0.115  -0.108
    1UNL     C8    9   0.195  -0.111  -0.254
    1UNL     C9   10   0.319  -0.096  -0.014
    1UNL    C10   11   0.455  -0.116  -0.039
    1UNL    C11   12   0.551  -0.088   0.057
    1UNL    C12   13   0.502  -0.024   0.178
    1UNL    C13   14   0.365   0.002   0.204
    1UNL    C14   15   0.269  -0.041   0.111
    1UNL    C15   16   0.126   0.006   0.087
    1UNL    C16   17   0.119   0.143   0.017
    1UNL    C17   18  -0.028   0.167   0.002
    1UNL    C18   19  -0.086   0.112   0.139
    1UNL    C19   20   0.027   0.015   0.208
    1UNL     O1   21   0.094   0.073   0.310
    1UNL     N2   22  -0.075   0.085  -0.116
    1UNL    C20   23  -0.216   0.119  -0.141
    1UNL     O2   24  -0.271   0.028  -0.254
    1UNL     H1   25  -0.574  -0.107  -0.114
    1UNL     H2   26  -0.419  -0.101  -0.150
    1UNL     H3   27  -0.449  -0.144   0.013
    1UNL     H4   28  -0.497   0.092   0.066
    1UNL     H5   29  -0.492   0.133  -0.112
    1UNL     H6   30  -0.303   0.213   0.030
    1UNL     H7   31  -0.279  -0.005   0.187
    1UNL     H8   32  -0.119  -0.182   0.089
    1UNL     H9   33  -0.247  -0.152  -0.028
    1UNL    H10   34  -0.061  -0.118  -0.167
    1UNL    H11   35   0.082  -0.194   0.031
    1UNL    H12   36   0.272  -0.067  -0.310
    1UNL    H13   37   0.107  -0.041  -0.281
    1UNL    H14   38   0.191  -0.210  -0.293
    1UNL    H15   39   0.482  -0.167  -0.135
    1UNL    H16   40   0.654  -0.120   0.043
    1UNL    H17   41   0.568  -0.014   0.267
    1UNL    H18   42   0.325   0.024   0.298
    1UNL    H19   43   0.167   0.223   0.080
    1UNL    H20   44   0.171   0.129  -0.077
    1UNL    H21   45  -0.032   0.272  -0.016
    1UNL    H22   46  -0.127   0.189   0.202
    1UNL    H23   47  -0.014  -0.078   0.240
    1UNL    H24   48   0.136   0.150   0.280
    1UNL    H25   49  -0.225   0.217  -0.183
    1UNL    H26   50  -0.194  -0.003  -0.298
   0.00000   0.00000   0.00000   0.00000   0.00000   0.00000   0.00000   0.00000   0.00000
Generated with MDTraj, t= 12.0
 50
    1UNL     C1    1  -0.482  -0.073  -0.074
    1UNL     C2    2  -0.455   0.053   0.001
    1UNL     C3    3  -0.303   0.099  -0.004
    1UNL     C4    4  -0.208   0.005   0.087
    1UNL     C5    5  -0.153  -0.113   0.005
    1UNL     C6    6  -0.049  -0.055  -0.095
    1UNL     C7    7   0.089  -0.090  -0.030
    1UNL     N1    8   0.213  -0.104  -0.112
    1UNL     C8    9   0.224  -0.151  -0.248
    1UNL     C9   10   0.321  -0.089  -0.019
    1UNL    C10   11   0.455  -0.136  -0.029
    1UNL    C11   12   0.549  -0.106   0.071
    1UNL    C12   13   0.502  -0.028   0.186
    1UNL    C13   14   0.370   0.009   0.196
    1UNL    C14   15   0.277  -0.020   0.095
    1UNL    C15   16   0.133   0.011   0.078
    1UNL    C16   17   0.121   0.158   0.019
    1UNL    C17   18  -0.033   0.170   0.007
    1UNL    C18   19  -0.088   0.095   0.132
    1UNL    C19   20   0.030   0.017   0.202
    1UNL     O1   21   0.079   0.089   0.311
    1UNL     N2   22  -0.079   0.094  -0.118
    1UNL    C20   23  -0.223   0.122  -0.135
    1UNL     O2   24  -0.289   0.045  -0.247
    1UNL     H1   25  -0.580  -0.108  -0.095
    1UNL     H2   26  -0.453  -0.049  -0.170
    1UNL     H3   27  -0.418  -0.152  -0.037
    1UNL     H4   28  -0.494   0.041   0.108
    1UNL     H5   29  -0.524   0.134  -0.040
    1UNL     H6   30  -0.296   0.197   0.048
    1UNL     H7   31  -0.263  -0.029   0.189
    1UNL     H8   32  -0.114  -0.190   0.072
    1UNL     H9   33  -0.232  -0.161  -0.059
    1UNL    H10   34  -0.056  -0.106  -0.185
    1UNL    H11   35   0.074  -0.182   0.029
    1UNL    H12   36   0.321  -0.173  -0.280
    1UNL    H13   37   0.198  -0.070  -0.321
    1UNL    H14   38   0.177  -0.248  -0.265
    1UNL    H15   39   0.471  -0.196  -0.115
    1UNL    H16   40   0.652  -0.147   0.069
    1UNL    H17   41   0.561  -0.021   0.272
    1UNL    H18   42   0.327   0.054   0.289
    1UNL    H19   43   0.162   0.234   0.089
    1UNL    H20   44   0.160   0.158  -0.083
    1UNL    H21   45  -0.058   0.273   0.009
    1UNL    H22   46  -0.119   0.166   0.202
    1UNL    H23   47   0.005  -0.080   0.238
    1UNL    H24   48   0.118   0.174   0.287
    1UNL    H25   49  -0.231   0.225  -0.168
    1UNL    H26   50  -0.203   0.017  -0.302
   0.00000   0.00000   0.00000   0.00000   0.00000   0.00000   0.00000   0.00000   0.00000
Generated with MDTraj, t= 13.0
 50
    1UNL     C1    1  -0.471  -0.084  -0.068
    1UNL     C2    2  -0.454   0.055  -0.016
    1UNL     C3    3  -0.308   0.099   0.001
    1UNL     C4    4  -0.212   0.010   0.087
    1UNL     C5    5  -0.157  -0.105  -0.006
    1UNL     C6    6  -0.052  -0.041  -0.103
    1UNL     C7    7   0.094  -0.073  -0.038
    1UNL     N1    8   0.221  -0.102  -0.115
    1UNL     C8    9   0.221  -0.207  -0.222
    1UNL     C9   10   0.333  -0.065  -0.036
    1UNL    C10   11   0.460  -0.124  -0.041
    1UNL    C11   12   0.537  -0.110   0.075
    1UNL    C12   13   0.492  -0.052   0.196
    1UNL    C13   14   0.361  -0.000   0.200
    1UNL    C14   15   0.287  -0.005   0.082
    1UNL    C15   16   0.141   0.025   0.069
    1UNL    C16   17   0.118   0.176   0.024
    1UNL    C17   18  -0.039   0.180   0.015
    1UNL    C18   19  -0.091   0.091   0.142
    1UNL    C19   20   0.038   0.016   0.192
    1UNL     O1   21   0.083   0.071   0.313
    1UNL     N2   22  -0.082   0.105  -0.108
    1UNL    C20   23  -0.229   0.126  -0.133
    1UNL     O2   24  -0.286   0.036  -0.234
    1UNL     H1   25  -0.570  -0.107  -0.099
    1UNL     H2   26  -0.429  -0.081  -0.164
    1UNL     H3   27  -0.430  -0.164  -0.006
    1UNL     H4   28  -0.513   0.067   0.079
    1UNL     H5   29  -0.503   0.129  -0.088
    1UNL     H6   30  -0.307   0.194   0.056
    1UNL     H7   31  -0.279  -0.040   0.171
    1UNL     H8   32  -0.111  -0.190   0.046
    1UNL     H9   33  -0.241  -0.157  -0.061
    1UNL    H10   34  -0.054  -0.083  -0.198
    1UNL    H11   35   0.076  -0.171   0.010
    1UNL    H12   36   0.315  -0.252  -0.246
    1UNL    H13   37   0.197  -0.163  -0.318
    1UNL    H14   38   0.161  -0.295  -0.192
    1UNL    H15   39   0.497  -0.153  -0.139
    1UNL    H16   40   0.634  -0.145   0.066
    1UNL    H17   41   0.570  -0.029   0.272
    1UNL    H18   42   0.318   0.051   0.283
    1UNL    H19   43   0.159   0.239   0.106
    1UNL    H20   44   0.147   0.196  -0.081
    1UNL    H21   45  -0.085   0.274   0.020
    1UNL    H22   46  -0.122   0.159   0.212
    1UNL    H23   47   0.010  -0.086   0.209
    1UNL    H24   48   0.118   0.166   0.293
    1UNL    H25   49  -0.247   0.227  -0.172
    1UNL    H26   50  -0.217   0.015  -0.301
   0.00000   0.00000   0.00000   0.00000   0.00000   0.00000   0.00000   0.00000   0.00000
Generated with MDTraj, t= 14.0
 50
    1UNL     C1    1  -0.471  -0.102  -0.060
    1UNL     C2    2  -0.444   0.049  -0.022
    1UNL     C3    3  -0.301   0.102  -0.003
    1UNL     C4    4  -0.213   0.017   0.085
    1UNL     C5    5  -0.163  -0.100  -0.004
    1UNL     C6    6  -0.049  -0.050  -0.097
    1UNL     C7    7   0.092  -0.083  -0.029
    1UNL     N1    8   0.206  -0.101  -0.112
    1UNL     C8    9   0.202  -0.205  -0.218
    1UNL     C9   10   0.327  -0.078  -0.036
    1UNL    C10   11   0.458  -0.103  -0.049
    1UNL    C11   12   0.540  -0.083   0.062
    1UNL    C12   13   0.501  -0.049   0.191
    1UNL    C13   14   0.365  -0.011   0.205
    1UNL    C14   15   0.289  -0.025   0.092
    1UNL    C15   16   0.138   0.017   0.082
    1UNL    C16   17   0.122   0.161   0.023
    1UNL    C17   18  -0.033   0.171   0.007
    1UNL    C18   19  -0.096   0.104   0.139
    1UNL    C19   20   0.031   0.023   0.201
    1UNL     O1   21   0.077   0.070   0.320
    1UNL     N2   22  -0.073   0.098  -0.116
    1UNL    C20   23  -0.227   0.130  -0.136
    1UNL     O2   24  -0.274   0.061  -0.250
    1UNL     H1   25  -0.574  -0.109  -0.083
    1UNL     H2   26  -0.436  -0.119  -0.160
    1UNL     H3   27  -0.441  -0.179   0.012
    1UNL     H4   28  -0.481   0.062   0.085
    1UNL     H5   29  -0.504   0.121  -0.086
    1UNL     H6   30  -0.295   0.196   0.054
    1UNL     H7   31  -0.273  -0.023   0.173
    1UNL     H8   32  -0.140  -0.193   0.054
    1UNL     H9   33  -0.245  -0.134  -0.072
    1UNL    H10   34  -0.062  -0.096  -0.190
    1UNL    H11   35   0.083  -0.181   0.023
    1UNL    H12   36   0.281  -0.179  -0.291
    1UNL    H13   37   0.114  -0.204  -0.271
    1UNL    H14   38   0.227  -0.304  -0.174
    1UNL    H15   39   0.497  -0.137  -0.146
    1UNL    H16   40   0.650  -0.078   0.030
    1UNL    H17   41   0.563  -0.041   0.274
    1UNL    H18   42   0.329   0.042   0.290
    1UNL    H19   43   0.166   0.232   0.094
    1UNL    H20   44   0.161   0.155  -0.080
    1UNL    H21   45  -0.069   0.267  -0.013
    1UNL    H22   46  -0.121   0.172   0.211
    1UNL    H23   47  -0.010  -0.073   0.230
    1UNL    H24   48   0.130   0.160   0.302
    1UNL    H25   49  -0.237   0.238  -0.161
    1UNL    H26   50  -0.217   0.067  -0.323
   0.00000   0.00000   0.00000   0.00000   0.00000   0.00000   0.00000   0.00000   0.00000
Generated with MDTraj, t= 15.0
 50
    1UNL     C1    1  -0.481  -0.066  -0.086
    1UNL     C2    2  -0.449   0.070  -0.027
    1UNL     C3    3  -0.300   0.107  -0.007
    1UNL     C4    4  -0.216   0.012   0.095
    1UNL     C5    5  -0.170  -0.108   0.006
    1UNL     C6    6  -0.059  -0.066  -0.093
    1UNL     C7    7   0.079  -0.099  -0.027
    1UNL     N1    8   0.206  -0.118  -0.101
    1UNL     C8    9   0.220  -0.169  -0.238
    1UNL     C9   10   0.324  -0.088  -0.025
    1UNL    C10   11   0.459  -0.114  -0.047
    1UNL    C11   12   0.548  -0.079   0.059
    1UNL    C12   13   0.505  -0.016   0.174
    1UNL    C13   14   0.369   0.014   0.186
    1UNL    C14   15   0.280  -0.032   0.094
    1UNL    C15   16   0.131   0.011   0.077
    1UNL    C16   17   0.120   0.149   0.023
    1UNL    C17   18  -0.035   0.166   0.020
    1UNL    C18   19  -0.094   0.094   0.142
    1UNL    C19   20   0.028   0.018   0.202
    1UNL     O1   21   0.084   0.074   0.324
    1UNL     N2   22  -0.070   0.082  -0.105
    1UNL    C20   23  -0.217   0.118  -0.134
    1UNL     O2   24  -0.265   0.042  -0.237
    1UNL     H1   25  -0.579  -0.051  -0.126
    1UNL     H2   26  -0.426  -0.081  -0.181
    1UNL     H3   27  -0.478  -0.151  -0.019
    1UNL     H4   28  -0.495   0.071   0.075
    1UNL     H5   29  -0.491   0.157  -0.087
    1UNL     H6   30  -0.303   0.207   0.038
    1UNL     H7   31  -0.293  -0.016   0.167
    1UNL     H8   32  -0.126  -0.188   0.074
    1UNL     H9   33  -0.252  -0.155  -0.049
    1UNL    H10   34  -0.063  -0.104  -0.190
    1UNL    H11   35   0.071  -0.185   0.043
    1UNL    H12   36   0.210  -0.083  -0.307
    1UNL    H13   37   0.147  -0.240  -0.257
    1UNL    H14   38   0.323  -0.207  -0.240
    1UNL    H15   39   0.486  -0.189  -0.117
    1UNL    H16   40   0.645  -0.114   0.057
    1UNL    H17   41   0.575  -0.001   0.262
    1UNL    H18   42   0.331   0.058   0.282
    1UNL    H19   43   0.161   0.219   0.094
    1UNL    H20   44   0.171   0.153  -0.076
    1UNL    H21   45  -0.070   0.262  -0.002
    1UNL    H22   46  -0.118   0.167   0.214
    1UNL    H23   47  -0.008  -0.080   0.234
    1UNL    H24   48   0.131   0.163   0.303
    1UNL    H25   49  -0.209   0.225  -0.165
    1UNL    H26   50  -0.223   0.060  -0.332
   0.00000   0.00000   0.00000   0.00000   0.00000   0.00000   0.00000   0.00000   0.00000
Generated with MDTraj, t= 16.0
 50
    1UNL     C1    1  -0.491  -0.041  -0.098
    1UNL     C2    2  -0.450   0.070  -0.005
    1UNL     C3    3  -0.293   0.108  -0.007
    1UNL     C4    4  -0.212   0.014   0.090
    1UNL     C5    5  -0.172  -0.106   0.007
    1UNL     C6    6  -0.055  -0.064  -0.077
    1UNL     C7    7   0.087  -0.107  -0.017
    1UNL     N1    8   0.213  -0.127  -0.101
    1UNL     C8    9   0.213  -0.127  -0.248
    1UNL     C9   10   0.320  -0.091  -0.016
    1UNL    C10   11   0.457  -0.122  -0.037
    1UNL    C11   12   0.549  -0.081   0.054
    1UNL    C12   13   0.505  -0.009   0.167
    1UNL    C13   14   0.375   0.019   0.196
    1UNL    C14   15   0.280  -0.030   0.104
    1UNL    C15   16   0.136   0.006   0.087
    1UNL    C16   17   0.123   0.142   0.018
    1UNL    C17   18  -0.028   0.160  -0.003
    1UNL    C18   19  -0.087   0.098   0.130
    1UNL    C19   20   0.026   0.010   0.202
    1UNL     O1   21   0.071   0.070   0.327
    1UNL     N2   22  -0.072   0.078  -0.116
    1UNL    C20   23  -0.222   0.108  -0.140
    1UNL     O2   24  -0.270   0.018  -0.236
    1UNL     H1   25  -0.599  -0.036  -0.106
    1UNL     H2   26  -0.465  -0.026  -0.206
    1UNL     H3   27  -0.461  -0.137  -0.066
    1UNL     H4   28  -0.485   0.054   0.099
    1UNL     H5   29  -0.493   0.167  -0.044
    1UNL     H6   30  -0.280   0.204   0.045
    1UNL     H7   31  -0.266  -0.013   0.174
    1UNL     H8   32  -0.138  -0.197   0.069
    1UNL     H9   33  -0.252  -0.136  -0.058
    1UNL    H10   34  -0.060  -0.111  -0.171
    1UNL    H11   35   0.075  -0.202   0.038
    1UNL    H12   36   0.154  -0.045  -0.292
    1UNL    H13   37   0.178  -0.224  -0.280
    1UNL    H14   38   0.317  -0.111  -0.269
    1UNL    H15   39   0.478  -0.190  -0.120
    1UNL    H16   40   0.657  -0.112   0.048
    1UNL    H17   41   0.577   0.020   0.234
    1UNL    H18   42   0.352   0.059   0.288
    1UNL    H19   43   0.168   0.215   0.081
    1UNL    H20   44   0.184   0.148  -0.075
    1UNL    H21   45  -0.058   0.259  -0.020
    1UNL    H22   46  -0.102   0.178   0.206
    1UNL    H23   47  -0.021  -0.086   0.227
    1UNL    H24   48   0.118   0.150   0.299
    1UNL    H25   49  -0.229   0.215  -0.172
    1UNL    H26   50  -0.231   0.028  -0.328
   0.00000   0.00000   0.00000   0.00000   0.00000   0.00000   0.00000   0.00000   0.00000
Generated with MDTraj, t= 17.0
 50
    1UNL     C1    1  -0.486  -0.065  -0.066
    1UNL     C2    2  -0.452   0.079  -0.026
    1UNL     C3    3  -0.300   0.106  -0.013
    1UNL     C4    4  -0.217   0.017   0.088
    1UNL     C5    5  -0.170  -0.113   0.013
    1UNL     C6    6  -0.054  -0.069  -0.089
    1UNL     C7    7   0.085  -0.106  -0.017
    1UNL     N1    8   0.209  -0.124  -0.099
    1UNL     C8    9   0.206  -0.094  -0.248
    1UNL     C9   10   0.320  -0.089  -0.016
    1UNL    C10   11   0.458  -0.120  -0.029
    1UNL    C11   12   0.547  -0.088   0.062
    1UNL    C12   13   0.503  -0.030   0.181
    1UNL    C13   14   0.368  -0.005   0.202
    1UNL    C14   15   0.276  -0.024   0.102
    1UNL    C15   16   0.130   0.003   0.084
    1UNL    C16   17   0.123   0.139   0.016
    1UNL    C17   18  -0.021   0.160   0.002
    1UNL    C18   19  -0.087   0.092   0.133
    1UNL    C19   20   0.030   0.013   0.202
    1UNL     O1   21   0.095   0.089   0.308
    1UNL     N2   22  -0.070   0.081  -0.111
    1UNL    C20   23  -0.220   0.109  -0.145
    1UNL     O2   24  -0.275   0.024  -0.246
    1UNL     H1   25  -0.592  -0.073  -0.095
    1UNL     H2   26  -0.434  -0.108  -0.155
    1UNL     H3   27  -0.459  -0.126   0.017
    1UNL     H4   28  -0.498   0.098   0.073
    1UNL     H5   29  -0.498   0.146  -0.102
    1UNL     H6   30  -0.285   0.204   0.038
    1UNL     H7   31  -0.283  -0.006   0.162
    1UNL     H8   32  -0.144  -0.201   0.081
    1UNL     H9   33  -0.253  -0.148  -0.047
    1UNL    H10   34  -0.076  -0.119  -0.179
    1UNL    H11   35   0.070  -0.197   0.045
    1UNL    H12   36   0.111  -0.056  -0.281
    1UNL    H13   37   0.221  -0.194  -0.299
    1UNL    H14   38   0.280  -0.026  -0.277
    1UNL    H15   39   0.498  -0.151  -0.124
    1UNL    H16   40   0.650  -0.089   0.040
    1UNL    H17   41   0.580   0.004   0.256
    1UNL    H18   42   0.325   0.039   0.296
    1UNL    H19   43   0.182   0.208   0.072
    1UNL    H20   44   0.179   0.141  -0.080
    1UNL    H21   45  -0.055   0.258  -0.000
    1UNL    H22   46  -0.113   0.188   0.193
    1UNL    H23   47   0.011  -0.093   0.228
    1UNL    H24   48   0.127   0.172   0.283
    1UNL    H25   49  -0.219   0.214  -0.179
    1UNL    H26   50  -0.229   0.034  -0.325
   0.00000   0.00000   0.00000   0.00000   0.00000   0.00000   0.00000   0.00000   0.00000
Generated with MDTraj, t= 18.0
 50
    1UNL     C1    1  -0.471  -0.098  -0.044
    1UNL     C2    2  -0.444   0.048  -0.015
    1UNL     C3    3  -0.302   0.106  -0.010
    1UNL     C4    4  -0.216   0.030   0.087
    1UNL     C5    5  -0.159  -0.099   0.020
    1UNL     C6    6  -0.056  -0.058  -0.090
    1UNL     C7    7   0.089  -0.085  -0.025
    1UNL     N1    8   0.212  -0.109  -0.109
    1UNL     C8    9   0.218  -0.087  -0.250
    1UNL     C9   10   0.320  -0.097  -0.020
    1UNL    C10   11   0.456  -0.134  -0.030
    1UNL    C11   12   0.547  -0.117   0.074
    1UNL    C12   13   0.498  -0.056   0.184
    1UNL    C13   14   0.362  -0.018   0.203
    1UNL    C14   15   0.274  -0.027   0.098
    1UNL    C15   16   0.132   0.017   0.078
    1UNL    C16   17   0.126   0.154   0.008
    1UNL    C17   18  -0.026   0.174  -0.002
    1UNL    C18   19  -0.090   0.120   0.130
    1UNL    C19   20   0.025   0.027   0.193
    1UNL     O1   21   0.073   0.086   0.313
    1UNL     N2   22  -0.078   0.087  -0.120
    1UNL    C20   23  -0.221   0.111  -0.147
    1UNL     O2   24  -0.272   0.023  -0.244
    1UNL     H1   25  -0.577  -0.127  -0.063
    1UNL     H2   26  -0.423  -0.144  -0.133
    1UNL     H3   27  -0.435  -0.153   0.044
    1UNL     H4   28  -0.495   0.063   0.083
    1UNL     H5   29  -0.495   0.111  -0.090
    1UNL     H6   30  -0.300   0.213   0.025
    1UNL     H7   31  -0.273  -0.005   0.165
    1UNL     H8   32  -0.109  -0.174   0.088
    1UNL     H9   33  -0.239  -0.162  -0.029
    1UNL    H10   34  -0.068  -0.117  -0.176
    1UNL    H11   35   0.081  -0.187   0.017
    1UNL    H12   36   0.140  -0.023  -0.283
    1UNL    H13   37   0.212  -0.187  -0.304
    1UNL    H14   38   0.305  -0.039  -0.283
    1UNL    H15   39   0.500  -0.150  -0.128
    1UNL    H16   40   0.654  -0.146   0.071
    1UNL    H17   41   0.568  -0.033   0.259
    1UNL    H18   42   0.334   0.030   0.295
    1UNL    H19   43   0.184   0.234   0.049
    1UNL    H20   44   0.177   0.142  -0.090
    1UNL    H21   45  -0.059   0.270  -0.027
    1UNL    H22   46  -0.126   0.193   0.217
    1UNL    H23   47  -0.018  -0.071   0.223
    1UNL    H24   48   0.100   0.176   0.299
    1UNL    H25   49  -0.233   0.212  -0.189
    1UNL    H26   50  -0.206   0.012  -0.324
   0.00000   0.00000   0.00000   0.00000   0.00000   0.00000   0.00000   0.00000   0.00000
Generated with MDTraj, t= 19.0
 50
    1UNL     C1    1  -0.479  -0.083  -0.064
    1UNL     C2    2  -0.442   0.054  -0.010
    1UNL     C3    3  -0.298   0.093   0.006
    1UNL     C4    4  -0.207   0.003   0.093
    1UNL     C5    5  -0.153  -0.113   0.010
    1UNL     C6    6  -0.047  -0.060  -0.092
    1UNL     C7    7   0.093  -0.083  -0.031
    1UNL     N1    8   0.214  -0.102  -0.116
    1UNL     C8    9   0.213  -0.099  -0.259
    1UNL     C9   10   0.327  -0.086  -0.023
    1UNL    C10   11   0.458  -0.142  -0.031
    1UNL    C11   12   0.536  -0.129   0.089
    1UNL    C12   13   0.490  -0.063   0.200
    1UNL    C13   14   0.369  -0.003   0.202
    1UNL    C14   15   0.287  -0.014   0.094
    1UNL    C15   16   0.137   0.024   0.072
    1UNL    C16   17   0.114   0.164   0.008
    1UNL    C17   18  -0.042   0.167   0.004
    1UNL    C18   19  -0.089   0.097   0.132
    1UNL    C19   20   0.030   0.033   0.193
    1UNL     O1   21   0.087   0.104   0.299
    1UNL     N2   22  -0.086   0.089  -0.117
    1UNL    C20   23  -0.229   0.112  -0.139
    1UNL     O2   24  -0.277   0.030  -0.241
    1UNL     H1   25  -0.588  -0.103  -0.085
    1UNL     H2   26  -0.432  -0.111  -0.158
    1UNL     H3   27  -0.447  -0.154   0.016
    1UNL     H4   28  -0.496   0.072   0.085
    1UNL     H5   29  -0.474   0.126  -0.087
    1UNL     H6   30  -0.294   0.199   0.044
    1UNL     H7   31  -0.260  -0.031   0.179
    1UNL     H8   32  -0.113  -0.190   0.081
    1UNL     H9   33  -0.236  -0.166  -0.049
    1UNL    H10   34  -0.054  -0.107  -0.187
    1UNL    H11   35   0.083  -0.164   0.041
    1UNL    H12   36   0.184  -0.003  -0.287
    1UNL    H13   37   0.142  -0.175  -0.299
    1UNL    H14   38   0.308  -0.112  -0.309
    1UNL    H15   39   0.496  -0.204  -0.111
    1UNL    H16   40   0.616  -0.197   0.100
    1UNL    H17   41   0.537  -0.068   0.298
    1UNL    H18   42   0.334   0.045   0.287
    1UNL    H19   43   0.147   0.246   0.069
    1UNL    H20   44   0.165   0.184  -0.087
    1UNL    H21   45  -0.070   0.267  -0.005
    1UNL    H22   46  -0.130   0.181   0.206
    1UNL    H23   47   0.008  -0.070   0.229
    1UNL    H24   48   0.068   0.202   0.290
    1UNL    H25   49  -0.235   0.213  -0.180
    1UNL    H26   50  -0.193   0.013  -0.303
   0.00000   0.00000   0.00000   0.00000   0.00000   0.00000   0.00000   0.00000   0.00000
Generated with MDTraj, t= 20.0
 50
    1UNL     C1    1  -0.467  -0.085  -0.080
    1UNL     C2    2  -0.457   0.050  -0.009
    1UNL     C3    3  -0.311   0.103   0.002
    1UNL     C4    4  -0.216   0.012   0.093
    1UNL     C5    5  -0.156  -0.102   0.013
    1UNL     C6    6  -0.055  -0.056  -0.095
    1UNL     C7    7   0.079  -0.096  -0.034
    1UNL     N1    8   0.210  -0.113  -0.103
    1UNL     C8    9   0.225  -0.124  -0.246
    1UNL     C9   10   0.321  -0.093  -0.018
    1UNL    C10   11   0.455  -0.124  -0.034
    1UNL    C11   12   0.540  -0.102   0.074
    1UNL    C12   13   0.501  -0.047   0.195
    1UNL    C13   14   0.372  -0.006   0.208
    1UNL    C14   15   0.277  -0.031   0.102
    1UNL    C15   16   0.136   0.020   0.069
    1UNL    C16   17   0.126   0.160   0.003
    1UNL    C17   18  -0.030   0.173  -0.004
    1UNL    C18   19  -0.089   0.109   0.132
    1UNL    C19   20   0.038   0.025   0.189
    1UNL     O1   21   0.091   0.078   0.308
    1UNL     N2   22  -0.080   0.095  -0.115
    1UNL    C20   23  -0.227   0.118  -0.136
    1UNL     O2   24  -0.288   0.037  -0.238
    1UNL     H1   25  -0.574  -0.123  -0.083
    1UNL     H2   26  -0.431  -0.085  -0.181
    1UNL     H3   27  -0.410  -0.151  -0.008
    1UNL     H4   28  -0.492   0.050   0.096
    1UNL     H5   29  -0.515   0.119  -0.068
    1UNL     H6   30  -0.318   0.205   0.046
    1UNL     H7   31  -0.267  -0.020   0.184
    1UNL     H8   32  -0.104  -0.171   0.085
    1UNL     H9   33  -0.240  -0.163  -0.027
    1UNL    H10   34  -0.069  -0.098  -0.191
    1UNL    H11   35   0.070  -0.198   0.003
    1UNL    H12   36   0.240  -0.025  -0.285
    1UNL    H13   37   0.142  -0.174  -0.286
    1UNL    H14   38   0.316  -0.177  -0.279
    1UNL    H15   39   0.485  -0.194  -0.111
    1UNL    H16   40   0.646  -0.130   0.072
    1UNL    H17   41   0.573  -0.042   0.278
    1UNL    H18   42   0.335   0.049   0.301
    1UNL    H19   43   0.168   0.234   0.071
    1UNL    H20   44   0.168   0.167  -0.096
    1UNL    H21   45  -0.050   0.275  -0.011
    1UNL    H22   46  -0.126   0.190   0.203
    1UNL    H23   47   0.001  -0.076   0.219
    1UNL    H24   48   0.093   0.183   0.298
    1UNL    H25   49  -0.245   0.216  -0.179
    1UNL    H26   50  -0.220  -0.010  -0.279
   0.00000   0.00000   0.00000   0.00000   0.00000   0.00000   0.00000   0.00000   0.00000
Generated with MDTraj, t= 21.0
 50
    1UNL     C1    1  -0.479  -0.072  -0.053
    1UNL     C2    2  -0.449   0.075  -0.036
    1UNL     C3    3  -0.298   0.106  -0.010
    1UNL     C4    4  -0.219   0.002   0.085
    1UNL     C5    5  -0.164  -0.113   0.004
    1UNL     C6    6  -0.045  -0.061  -0.084
    1UNL     C7    7   0.087  -0.102  -0.017
    1UNL     N1    8   0.204  -0.107  -0.099
    1UNL     C8    9   0.208  -0.153  -0.241
    1UNL     C9   10   0.320  -0.084  -0.019
    1UNL    C10   11   0.450  -0.112  -0.048
    1UNL    C11   12   0.536  -0.082   0.049
    1UNL    C12   13   0.501  -0.022   0.174
    1UNL    C13   14   0.374   0.014   0.203
    1UNL    C14   15   0.280  -0.033   0.107
    1UNL    C15   16   0.135   0.006   0.088
    1UNL    C16   17   0.126   0.146   0.025
    1UNL    C17   18  -0.028   0.162   0.012
    1UNL    C18   19  -0.095   0.088   0.139
    1UNL    C19   20   0.024   0.008   0.200
    1UNL     O1   21   0.078   0.072   0.315
    1UNL     N2   22  -0.071   0.088  -0.115
    1UNL    C20   23  -0.216   0.120  -0.143
    1UNL     O2   24  -0.264   0.050  -0.255
    1UNL     H1   25  -0.590  -0.088  -0.041
    1UNL     H2   26  -0.449  -0.115  -0.149
    1UNL     H3   27  -0.433  -0.127   0.036
    1UNL     H4   28  -0.508   0.120   0.044
    1UNL     H5   29  -0.468   0.137  -0.121
    1UNL     H6   30  -0.294   0.209   0.033
    1UNL     H7   31  -0.271  -0.032   0.178
    1UNL     H8   32  -0.129  -0.189   0.083
    1UNL     H9   33  -0.242  -0.159  -0.056
    1UNL    H10   34  -0.053  -0.120  -0.172
    1UNL    H11   35   0.083  -0.204   0.026
    1UNL    H12   36   0.236  -0.070  -0.307
    1UNL    H13   37   0.118  -0.197  -0.261
    1UNL    H14   38   0.286  -0.229  -0.253
    1UNL    H15   39   0.485  -0.163  -0.137
    1UNL    H16   40   0.640  -0.088   0.025
    1UNL    H17   41   0.584   0.025   0.219
    1UNL    H18   42   0.341   0.073   0.281
    1UNL    H19   43   0.161   0.220   0.099
    1UNL    H20   44   0.163   0.149  -0.075
    1UNL    H21   45  -0.067   0.260   0.015
    1UNL    H22   46  -0.130   0.172   0.198
    1UNL    H23   47   0.009  -0.099   0.232
    1UNL    H24   48   0.094   0.175   0.306
    1UNL    H25   49  -0.232   0.222  -0.180
    1UNL    H26   50  -0.176   0.042  -0.300
   0.00000   0.00000   0.00000   0.00000   0.00000   0.00000   0.00000   0.00000   0.00000
Generated with MDTraj, t= 22.0
 50
    1UNL     C1    1  -0.482  -0.060  -0.080
    1UNL     C2    2  -0.446   0.078  -0.027
    1UNL     C3    3  -0.297   0.110   0.000
    1UNL     C4    4  -0.216   0.016   0.090
    1UNL     C5    5  -0.167  -0.107   0.005
    1UNL     C6    6  -0.052  -0.062  -0.094
    1UNL     C7    7   0.081  -0.093  -0.027
    1UNL     N1    8   0.212  -0.110  -0.104
    1UNL     C8    9   0.219  -0.199  -0.222
    1UNL     C9   10   0.323  -0.083  -0.017
    1UNL    C10   11   0.457  -0.094  -0.048
    1UNL    C11   12   0.551  -0.057   0.046
    1UNL    C12   13   0.507  -0.010   0.166
    1UNL    C13   14   0.372   0.005   0.195
    1UNL    C14   15   0.279  -0.033   0.104
    1UNL    C15   16   0.127   0.001   0.085
    1UNL    C16   17   0.130   0.143   0.020
    1UNL    C17   18  -0.023   0.168   0.012
    1UNL    C18   19  -0.093   0.103   0.137
    1UNL    C19   20   0.019   0.005   0.192
    1UNL     O1   21   0.063   0.039   0.324
    1UNL     N2   22  -0.072   0.089  -0.110
    1UNL    C20   23  -0.214   0.124  -0.138
    1UNL     O2   24  -0.275   0.046  -0.238
    1UNL     H1   25  -0.594  -0.066  -0.078
    1UNL     H2   26  -0.455  -0.075  -0.188
    1UNL     H3   27  -0.442  -0.144  -0.016
    1UNL     H4   28  -0.505   0.110   0.059
    1UNL     H5   29  -0.475   0.146  -0.105
    1UNL     H6   30  -0.288   0.212   0.042
    1UNL     H7   31  -0.270  -0.031   0.180
    1UNL     H8   32  -0.121  -0.178   0.081
    1UNL     H9   33  -0.247  -0.159  -0.044
    1UNL    H10   34  -0.055  -0.116  -0.186
    1UNL    H11   35   0.067  -0.191   0.024
    1UNL    H12   36   0.215  -0.142  -0.316
    1UNL    H13   37   0.147  -0.275  -0.207
    1UNL    H14   38   0.315  -0.246  -0.219
    1UNL    H15   39   0.486  -0.128  -0.145
    1UNL    H16   40   0.653  -0.050   0.011
    1UNL    H17   41   0.583   0.035   0.233
    1UNL    H18   42   0.349   0.062   0.288
    1UNL    H19   43   0.180   0.218   0.082
    1UNL    H20   44   0.167   0.133  -0.079
    1UNL    H21   45  -0.043   0.272   0.010
    1UNL    H22   46  -0.121   0.176   0.206
    1UNL    H23   47  -0.024  -0.097   0.207
    1UNL    H24   48   0.088   0.132   0.310
    1UNL    H25   49  -0.234   0.223  -0.184
    1UNL    H26   50  -0.220  -0.044  -0.238
   0.00000   0.00000   0.00000   0.00000   0.00000   0.00000   0.00000   0.00000   0.00000
Generated with MDTraj, t= 23.0
 50
    1UNL     C1    1  -0.498  -0.056  -0.096
    1UNL     C2    2  -0.453   0.067  -0.019
    1UNL     C3    3  -0.300   0.096   0.009
    1UNL     C4    4  -0.208  -0.003   0.087
    1UNL     C5    5  -0.159  -0.118  -0.005
    1UNL     C6    6  -0.051  -0.056  -0.096
    1UNL     C7    7   0.085  -0.089  -0.033
    1UNL     N1    8   0.213  -0.114  -0.109
    1UNL     C8    9   0.215  -0.224  -0.208
    1UNL     C9   10   0.325  -0.086  -0.022
    1UNL    C10   11   0.462  -0.101  -0.039
    1UNL    C11   12   0.553  -0.064   0.059
    1UNL    C12   13   0.506  -0.013   0.173
    1UNL    C13   14   0.365   0.007   0.192
    1UNL    C14   15   0.279  -0.018   0.095
    1UNL    C15   16   0.133   0.008   0.080
    1UNL    C16   17   0.116   0.154   0.016
    1UNL    C17   18  -0.038   0.159   0.018
    1UNL    C18   19  -0.095   0.084   0.143
    1UNL    C19   20   0.032   0.000   0.195
    1UNL     O1   21   0.087   0.075   0.307
    1UNL     N2   22  -0.076   0.096  -0.104
    1UNL    C20   23  -0.223   0.131  -0.127
    1UNL     O2   24  -0.266   0.069  -0.239
    1UNL     H1   25  -0.610  -0.061  -0.093
    1UNL     H2   26  -0.465  -0.057  -0.206
    1UNL     H3   27  -0.454  -0.145  -0.044
    1UNL     H4   28  -0.497   0.062   0.079
    1UNL     H5   29  -0.506   0.148  -0.062
    1UNL     H6   30  -0.294   0.189   0.066
    1UNL     H7   31  -0.279  -0.053   0.166
    1UNL     H8   32  -0.125  -0.207   0.058
    1UNL     H9   33  -0.239  -0.155  -0.068
    1UNL    H10   34  -0.051  -0.102  -0.191
    1UNL    H11   35   0.066  -0.186   0.019
    1UNL    H12   36   0.191  -0.187  -0.308
    1UNL    H13   37   0.155  -0.307  -0.168
    1UNL    H14   38   0.312  -0.258  -0.213
    1UNL    H15   39   0.491  -0.133  -0.139
    1UNL    H16   40   0.657  -0.093   0.051
    1UNL    H17   41   0.569  -0.003   0.256
    1UNL    H18   42   0.337   0.049   0.286
    1UNL    H19   43   0.155   0.245   0.064
    1UNL    H20   44   0.143   0.154  -0.086
    1UNL    H21   45  -0.061   0.263   0.004
    1UNL    H22   46  -0.122   0.152   0.213
    1UNL    H23   47   0.005  -0.102   0.236
    1UNL    H24   48   0.100   0.161   0.280
    1UNL    H25   49  -0.221   0.240  -0.154
    1UNL    H26   50  -0.219   0.114  -0.319
   0.00000   0.00000   0.00000   0.00000   0.00000   0.00000   0.00000   0.00000   0.00000
Generated with MDTraj, t= 24.0
 50
    1UNL     C1    1  -0.458  -0.095  -0.079
    1UNL     C2    2  -0.454   0.041  -0.016
    1UNL     C3    3  -0.305   0.103  -0.002
    1UNL     C4    4  -0.214   0.008   0.089
    1UNL     C5    5  -0.160  -0.105   0.004
    1UNL     C6    6  -0.051  -0.044  -0.088
    1UNL     C7    7   0.092  -0.074  -0.031
    1UNL     N1    8   0.211  -0.100  -0.108
    1UNL     C8    9   0.208  -0.200  -0.223
    1UNL     C9   10   0.322  -0.088  -0.021
    1UNL    C10   11   0.452  -0.135  -0.035
    1UNL    C11   12   0.542  -0.102   0.059
    1UNL    C12   13   0.503  -0.030   0.174
    1UNL    C13   14   0.373   0.012   0.194
    1UNL    C14   15   0.284  -0.007   0.092
    1UNL    C15   16   0.132   0.027   0.077
    1UNL    C16   17   0.117   0.167   0.015
    1UNL    C17   18  -0.032   0.180   0.008
    1UNL    C18   19  -0.089   0.099   0.134
    1UNL    C19   20   0.027   0.012   0.188
    1UNL     O1   21   0.075   0.058   0.318
    1UNL     N2   22  -0.081   0.108  -0.104
    1UNL    C20   23  -0.225   0.132  -0.131
    1UNL     O2   24  -0.267   0.062  -0.243
    1UNL     H1   25  -0.561  -0.136  -0.098
    1UNL     H2   26  -0.402  -0.106  -0.179
    1UNL     H3   27  -0.412  -0.167  -0.007
    1UNL     H4   28  -0.501   0.032   0.079
    1UNL     H5   29  -0.516   0.113  -0.063
    1UNL     H6   30  -0.303   0.193   0.057
    1UNL     H7   31  -0.272  -0.030   0.185
    1UNL     H8   32  -0.132  -0.198   0.060
    1UNL     H9   33  -0.233  -0.145  -0.068
    1UNL    H10   34  -0.050  -0.087  -0.184
    1UNL    H11   35   0.078  -0.166   0.029
    1UNL    H12   36   0.122  -0.181  -0.283
    1UNL    H13   37   0.206  -0.302  -0.181
    1UNL    H14   38   0.285  -0.196  -0.293
    1UNL    H15   39   0.477  -0.180  -0.129
    1UNL    H16   40   0.632  -0.158   0.058
    1UNL    H17   41   0.574  -0.024   0.262
    1UNL    H18   42   0.344   0.052   0.292
    1UNL    H19   43   0.156   0.242   0.084
    1UNL    H20   44   0.163   0.176  -0.079
    1UNL    H21   45  -0.069   0.281   0.004
    1UNL    H22   46  -0.120   0.162   0.209
    1UNL    H23   47   0.002  -0.098   0.199
    1UNL    H24   48   0.115   0.142   0.308
    1UNL    H25   49  -0.239   0.239  -0.159
    1UNL    H26   50  -0.211   0.035  -0.313
   0.00000   0.00000   0.00000   0.00000   0.00000   0.00000   0.00000   0.00000   0.00000
Generated with MDTraj, t= 25.0
 50
    1UNL     C1    1  -0.460  -0.093  -0.044
    1UNL     C2    2  -0.460   0.050  -0.029
    1UNL     C3    3  -0.310   0.097  -0.007
    1UNL     C4    4  -0.216   0.009   0.087
    1UNL     C5    5  -0.160  -0.107   0.001
    1UNL     C6    6  -0.053  -0.048  -0.091
    1UNL     C7    7   0.091  -0.081  -0.038
    1UNL     N1    8   0.213  -0.093  -0.115
    1UNL     C8    9   0.226  -0.162  -0.234
    1UNL     C9   10   0.321  -0.072  -0.028
    1UNL    C10   11   0.455  -0.121  -0.037
    1UNL    C11   12   0.540  -0.119   0.067
    1UNL    C12   13   0.496  -0.062   0.190
    1UNL    C13   14   0.365  -0.022   0.205
    1UNL    C14   15   0.281  -0.017   0.092
    1UNL    C15   16   0.135   0.025   0.074
    1UNL    C16   17   0.113   0.168   0.021
    1UNL    C17   18  -0.036   0.180   0.013
    1UNL    C18   19  -0.091   0.101   0.140
    1UNL    C19   20   0.030   0.022   0.189
    1UNL     O1   21   0.083   0.091   0.305
    1UNL     N2   22  -0.075   0.102  -0.108
    1UNL    C20   23  -0.228   0.118  -0.133
    1UNL     O2   24  -0.272   0.044  -0.241
    1UNL     H1   25  -0.564  -0.138  -0.054
    1UNL     H2   26  -0.402  -0.124  -0.136
    1UNL     H3   27  -0.413  -0.144   0.046
    1UNL     H4   28  -0.538   0.073   0.040
    1UNL     H5   29  -0.488   0.101  -0.118
    1UNL     H6   30  -0.308   0.186   0.053
    1UNL     H7   31  -0.272  -0.031   0.184
    1UNL     H8   32  -0.120  -0.195   0.051
    1UNL     H9   33  -0.239  -0.156  -0.063
    1UNL    H10   34  -0.056  -0.099  -0.184
    1UNL    H11   35   0.082  -0.182   0.005
    1UNL    H12   36   0.131  -0.194  -0.261
    1UNL    H13   37   0.297  -0.245  -0.231
    1UNL    H14   38   0.248  -0.100  -0.318
    1UNL    H15   39   0.483  -0.160  -0.135
    1UNL    H16   40   0.646  -0.145   0.052
    1UNL    H17   41   0.569  -0.056   0.262
    1UNL    H18   42   0.323   0.009   0.297
    1UNL    H19   43   0.170   0.242   0.078
    1UNL    H20   44   0.156   0.172  -0.076
    1UNL    H21   45  -0.076   0.281   0.007
    1UNL    H22   46  -0.127   0.175   0.209
    1UNL    H23   47  -0.002  -0.082   0.222
    1UNL    H24   48   0.123   0.180   0.282
    1UNL    H25   49  -0.216   0.225  -0.160
    1UNL    H26   50  -0.188   0.016  -0.296
   0.00000   0.00000   0.00000   0.00000   0.00000   0.00000   0.00000   0.00000   0.00000
Generated with MDTraj, t= 26.0
 50
    1UNL     C1    1  -0.485  -0.064  -0.066
    1UNL     C2    2  -0.447   0.068   0.007
    1UNL     C3    3  -0.297   0.101  -0.003
    1UNL     C4    4  -0.207   0.015   0.092
    1UNL     C5    5  -0.154  -0.110   0.012
    1UNL     C6    6  -0.051  -0.065  -0.094
    1UNL     C7    7   0.094  -0.082  -0.034
    1UNL     N1    8   0.222  -0.079  -0.119
    1UNL     C8    9   0.232  -0.140  -0.249
    1UNL     C9   10   0.328  -0.066  -0.031
    1UNL    C10   11   0.460  -0.107  -0.040
    1UNL    C11   12   0.537  -0.101   0.080
    1UNL    C12   13   0.488  -0.067   0.207
    1UNL    C13   14   0.357  -0.028   0.212
    1UNL    C14   15   0.279  -0.026   0.096
    1UNL    C15   16   0.139   0.021   0.075
    1UNL    C16   17   0.115   0.153   0.010
    1UNL    C17   18  -0.035   0.165  -0.009
    1UNL    C18   19  -0.087   0.104   0.126
    1UNL    C19   20   0.027   0.022   0.185
    1UNL     O1   21   0.082   0.079   0.308
    1UNL     N2   22  -0.083   0.083  -0.124
    1UNL    C20   23  -0.231   0.114  -0.137
    1UNL     O2   24  -0.281   0.020  -0.230
    1UNL     H1   25  -0.598  -0.082  -0.062
    1UNL     H2   26  -0.451  -0.063  -0.171
    1UNL     H3   27  -0.434  -0.151  -0.013
    1UNL     H4   28  -0.469   0.066   0.110
    1UNL     H5   29  -0.514   0.137  -0.035
    1UNL     H6   30  -0.294   0.199   0.043
    1UNL     H7   31  -0.263  -0.035   0.183
    1UNL     H8   32  -0.116  -0.184   0.081
    1UNL     H9   33  -0.238  -0.164  -0.039
    1UNL    H10   34  -0.064  -0.116  -0.187
    1UNL    H11   35   0.091  -0.177   0.022
    1UNL    H12   36   0.134  -0.161  -0.279
    1UNL    H13   37   0.295  -0.224  -0.256
    1UNL    H14   38   0.261  -0.070  -0.329
    1UNL    H15   39   0.490  -0.159  -0.130
    1UNL    H16   40   0.644  -0.102   0.074
    1UNL    H17   41   0.559  -0.042   0.293
    1UNL    H18   42   0.308  -0.001   0.306
    1UNL    H19   43   0.160   0.231   0.068
    1UNL    H20   44   0.173   0.158  -0.081
    1UNL    H21   45  -0.064   0.270  -0.019
    1UNL    H22   46  -0.121   0.182   0.200
    1UNL    H23   47  -0.001  -0.082   0.220
    1UNL    H24   48   0.131   0.168   0.283
    1UNL    H25   49  -0.260   0.214  -0.173
    1UNL    H26   50  -0.218  -0.004  -0.304
   0.00000   0.00000   0.00000   0.00000   0.00000   0.00000   0.00000   0.00000   0.00000
Generated with MDTraj, t= 27.0
 50
    1UNL     C1    1  -0.499  -0.066  -0.065
    1UNL     C2    2  -0.451   0.071  -0.018
    1UNL     C3    3  -0.302   0.100  -0.006
    1UNL     C4    4  -0.217   0.007   0.087
    1UNL     C5    5  -0.160  -0.115  -0.000
    1UNL     C6    6  -0.050  -0.056  -0.099
    1UNL     C7    7   0.089  -0.083  -0.034
    1UNL     N1    8   0.213  -0.104  -0.111
    1UNL     C8    9   0.220  -0.143  -0.246
    1UNL     C9   10   0.326  -0.093  -0.022
    1UNL    C10   11   0.456  -0.131  -0.036
    1UNL    C11   12   0.550  -0.090   0.065
    1UNL    C12   13   0.506  -0.029   0.184
    1UNL    C13   14   0.372   0.010   0.199
    1UNL    C14   15   0.284  -0.026   0.099
    1UNL    C15   16   0.137   0.014   0.078
    1UNL    C16   17   0.118   0.161   0.019
    1UNL    C17   18  -0.038   0.162   0.017
    1UNL    C18   19  -0.095   0.095   0.143
    1UNL    C19   20   0.026   0.013   0.194
    1UNL     O1   21   0.083   0.068   0.318
    1UNL     N2   22  -0.074   0.085  -0.108
    1UNL    C20   23  -0.221   0.121  -0.138
    1UNL     O2   24  -0.273   0.030  -0.237
    1UNL     H1   25  -0.608  -0.068  -0.104
    1UNL     H2   26  -0.442  -0.101  -0.152
    1UNL     H3   27  -0.498  -0.151   0.011
    1UNL     H4   28  -0.494   0.096   0.075
    1UNL     H5   29  -0.490   0.147  -0.083
    1UNL     H6   30  -0.300   0.200   0.038
    1UNL     H7   31  -0.279  -0.031   0.176
    1UNL     H8   32  -0.118  -0.194   0.059
    1UNL     H9   33  -0.248  -0.156  -0.052
    1UNL    H10   34  -0.066  -0.098  -0.196
    1UNL    H11   35   0.079  -0.179   0.016
    1UNL    H12   36   0.135  -0.112  -0.304
    1UNL    H13   37   0.246  -0.241  -0.255
    1UNL    H14   38   0.304  -0.085  -0.287
    1UNL    H15   39   0.488  -0.208  -0.104
    1UNL    H16   40   0.654  -0.118   0.046
    1UNL    H17   41   0.566   0.005   0.261
    1UNL    H18   42   0.343   0.068   0.286
    1UNL    H19   43   0.163   0.234   0.081
    1UNL    H20   44   0.173   0.169  -0.075
    1UNL    H21   45  -0.075   0.263  -0.011
    1UNL    H22   46  -0.134   0.169   0.223
    1UNL    H23   47   0.001  -0.094   0.223
    1UNL    H24   48   0.117   0.160   0.284
    1UNL    H25   49  -0.213   0.218  -0.186
    1UNL    H26   50  -0.195   0.031  -0.293
   0.00000   0.00000   0.00000   0.00000   0.00000   0.00000   0.00000   0.00000   0.00000
Generated with MDTraj, t= 28.0
 50
    1UNL     C1    1  -0.466  -0.090  -0.079
    1UNL     C2    2  -0.447   0.057  -0.030
    1UNL     C3    3  -0.302   0.104  -0.003
    1UNL     C4    4  -0.214   0.016   0.090
    1UNL     C5    5  -0.165  -0.100   0.007
    1UNL     C6    6  -0.054  -0.051  -0.085
    1UNL     C7    7   0.081  -0.100  -0.014
    1UNL     N1    8   0.205  -0.128  -0.096
    1UNL     C8    9   0.206  -0.174  -0.240
    1UNL     C9   10   0.321  -0.096  -0.020
    1UNL    C10   11   0.455  -0.114  -0.049
    1UNL    C11   12   0.547  -0.071   0.049
    1UNL    C12   13   0.509  -0.003   0.163
    1UNL    C13   14   0.370   0.011   0.190
    1UNL    C14   15   0.279  -0.036   0.098
    1UNL    C15   16   0.131   0.004   0.086
    1UNL    C16   17   0.126   0.151   0.024
    1UNL    C17   18  -0.027   0.170   0.017
    1UNL    C18   19  -0.089   0.100   0.142
    1UNL    C19   20   0.022   0.009   0.198
    1UNL     O1   21   0.066   0.058   0.326
    1UNL     N2   22  -0.070   0.094  -0.108
    1UNL    C20   23  -0.212   0.133  -0.133
    1UNL     O2   24  -0.269   0.064  -0.250
    1UNL     H1   25  -0.572  -0.116  -0.115
    1UNL     H2   26  -0.401  -0.103  -0.167
    1UNL     H3   27  -0.446  -0.169   0.000
    1UNL     H4   28  -0.505   0.063   0.059
    1UNL     H5   29  -0.485   0.131  -0.099
    1UNL     H6   30  -0.315   0.204   0.041
    1UNL     H7   31  -0.265  -0.018   0.183
    1UNL     H8   32  -0.133  -0.183   0.069
    1UNL     H9   33  -0.245  -0.119  -0.056
    1UNL    H10   34  -0.068  -0.079  -0.189
    1UNL    H11   35   0.065  -0.192   0.041
    1UNL    H12   36   0.193  -0.094  -0.312
    1UNL    H13   37   0.137  -0.251  -0.251
    1UNL    H14   38   0.302  -0.217  -0.257
    1UNL    H15   39   0.495  -0.172  -0.137
    1UNL    H16   40   0.649  -0.101   0.031
    1UNL    H17   41   0.596   0.017   0.233
    1UNL    H18   42   0.330   0.071   0.268
    1UNL    H19   43   0.175   0.212   0.095
    1UNL    H20   44   0.176   0.162  -0.074
    1UNL    H21   45  -0.066   0.276   0.008
    1UNL    H22   46  -0.139   0.171   0.222
    1UNL    H23   47  -0.022  -0.094   0.225
    1UNL    H24   48   0.118   0.141   0.318
    1UNL    H25   49  -0.231   0.233  -0.169
    1UNL    H26   50  -0.202   0.038  -0.327
   0.00000   0.00000   0.00000   0.00000   0.00000   0.00000   0.00000   0.00000   0.00000
Generated with MDTraj, t= 29.0
 50
    1UNL     C1    1  -0.472  -0.062  -0.103
    1UNL     C2    2  -0.447   0.068  -0.024
    1UNL     C3    3  -0.301   0.100  -0.001
    1UNL     C4    4  -0.222   0.007   0.093
    1UNL     C5    5  -0.170  -0.117   0.011
    1UNL     C6    6  -0.055  -0.058  -0.087
    1UNL     C7    7   0.087  -0.104  -0.026
    1UNL     N1    8   0.210  -0.103  -0.110
    1UNL     C8    9   0.214  -0.205  -0.220
    1UNL     C9   10   0.320  -0.069  -0.031
    1UNL    C10   11   0.454  -0.095  -0.056
    1UNL    C11   12   0.547  -0.071   0.042
    1UNL    C12   13   0.500  -0.017   0.165
    1UNL    C13   14   0.368   0.006   0.196
    1UNL    C14   15   0.276  -0.021   0.094
    1UNL    C15   16   0.131  -0.004   0.088
    1UNL    C16   17   0.124   0.143   0.036
    1UNL    C17   18  -0.026   0.164   0.022
    1UNL    C18   19  -0.089   0.089   0.146
    1UNL    C19   20   0.027   0.006   0.207
    1UNL     O1   21   0.080   0.075   0.320
    1UNL     N2   22  -0.070   0.095  -0.108
    1UNL    C20   23  -0.222   0.129  -0.136
    1UNL     O2   24  -0.267   0.049  -0.246
    1UNL     H1   25  -0.578  -0.072  -0.139
    1UNL     H2   26  -0.410  -0.054  -0.197
    1UNL     H3   27  -0.456  -0.153  -0.041
    1UNL     H4   28  -0.488   0.056   0.073
    1UNL     H5   29  -0.495   0.149  -0.079
    1UNL     H6   30  -0.300   0.194   0.058
    1UNL     H7   31  -0.282  -0.006   0.182
    1UNL     H8   32  -0.130  -0.194   0.072
    1UNL     H9   33  -0.254  -0.152  -0.040
    1UNL    H10   34  -0.069  -0.097  -0.187
    1UNL    H11   35   0.078  -0.202   0.021
    1UNL    H12   36   0.300  -0.185  -0.281
    1UNL    H13   37   0.121  -0.219  -0.274
    1UNL    H14   38   0.233  -0.292  -0.169
    1UNL    H15   39   0.479  -0.111  -0.153
    1UNL    H16   40   0.648  -0.106   0.031
    1UNL    H17   41   0.572  -0.006   0.241
    1UNL    H18   42   0.332   0.052   0.290
    1UNL    H19   43   0.167   0.210   0.107
    1UNL    H20   44   0.162   0.153  -0.066
    1UNL    H21   45  -0.062   0.272   0.028
    1UNL    H22   46  -0.121   0.174   0.221
    1UNL    H23   47  -0.003  -0.094   0.253
    1UNL    H24   48   0.118   0.157   0.299
    1UNL    H25   49  -0.212   0.231  -0.175
    1UNL    H26   50  -0.183   0.039  -0.297
   0.00000   0.00000   0.00000   0.00000   0.00000   0.00000   0.00000   0.00000   0.00000
Generated with MDTraj, t= 30.0
 50
    1UNL     C1    1  -0.493  -0.065  -0.077
    1UNL     C2    2  -0.459   0.064  -0.005
    1UNL     C3    3  -0.305   0.108  -0.005
    1UNL     C4    4  -0.214   0.011   0.080
    1UNL     C5    5  -0.155  -0.100  -0.010
    1UNL     C6    6  -0.049  -0.045  -0.105
    1UNL     C7    7   0.093  -0.085  -0.034
    1UNL     N1    8   0.217  -0.096  -0.117
    1UNL     C8    9   0.212  -0.210  -0.211
    1UNL     C9   10   0.326  -0.069  -0.023
    1UNL    C10   11   0.463  -0.100  -0.039
    1UNL    C11   12   0.556  -0.091   0.061
    1UNL    C12   13   0.508  -0.034   0.183
    1UNL    C13   14   0.376   0.004   0.195
    1UNL    C14   15   0.281  -0.012   0.096
    1UNL    C15   16   0.134   0.017   0.080
    1UNL    C16   17   0.119   0.157   0.028
    1UNL    C17   18  -0.033   0.173   0.013
    1UNL    C18   19  -0.092   0.088   0.141
    1UNL    C19   20   0.029   0.006   0.199
    1UNL     O1   21   0.081   0.051   0.321
    1UNL     N2   22  -0.077   0.097  -0.121
    1UNL    C20   23  -0.226   0.124  -0.139
    1UNL     O2   24  -0.284   0.032  -0.238
    1UNL     H1   25  -0.598  -0.084  -0.103
    1UNL     H2   26  -0.444  -0.067  -0.180
    1UNL     H3   27  -0.469  -0.158  -0.021
    1UNL     H4   28  -0.485   0.068   0.098
    1UNL     H5   29  -0.512   0.144  -0.056
    1UNL     H6   30  -0.301   0.204   0.050
    1UNL     H7   31  -0.272  -0.042   0.150
    1UNL     H8   32  -0.121  -0.183   0.042
    1UNL     H9   33  -0.232  -0.144  -0.072
    1UNL    H10   34  -0.051  -0.092  -0.203
    1UNL    H11   35   0.076  -0.179   0.015
    1UNL    H12   36   0.313  -0.225  -0.235
    1UNL    H13   37   0.148  -0.184  -0.296
    1UNL    H14   38   0.179  -0.295  -0.164
    1UNL    H15   39   0.498  -0.108  -0.147
    1UNL    H16   40   0.661  -0.117   0.047
    1UNL    H17   41   0.569  -0.013   0.273
    1UNL    H18   42   0.344   0.047   0.285
    1UNL    H19   43   0.164   0.223   0.101
    1UNL    H20   44   0.162   0.163  -0.072
    1UNL    H21   45  -0.056   0.284   0.022
    1UNL    H22   46  -0.135   0.162   0.218
    1UNL    H23   47  -0.004  -0.100   0.223
    1UNL    H24   48   0.120   0.133   0.290
    1UNL    H25   49  -0.255   0.225  -0.174
    1UNL    H26   50  -0.230   0.010  -0.311
   0.00000   0.00000   0.00000   0.00000   0.00000   0.00000   0.00000   0.00000   0.00000
Generated with MDTraj, t= 31.0
 50
    1UNL     C1    1  -0.472  -0.096  -0.042
    1UNL     C2    2  -0.447   0.050  -0.012
    1UNL     C3    3  -0.301   0.107  -0.003
    1UNL     C4    4  -0.210   0.014   0.090
    1UNL     C5    5  -0.154  -0.106  -0.002
    1UNL     C6    6  -0.050  -0.041  -0.102
    1UNL     C7    7   0.095  -0.085  -0.038
    1UNL     N1    8   0.221  -0.102  -0.120
    1UNL     C8    9   0.224  -0.179  -0.246
    1UNL     C9   10   0.327  -0.087  -0.024
    1UNL    C10   11   0.464  -0.127  -0.030
    1UNL    C11   12   0.541  -0.112   0.089
    1UNL    C12   13   0.491  -0.035   0.193
    1UNL    C13   14   0.361   0.019   0.190
    1UNL    C14   15   0.278  -0.020   0.092
    1UNL    C15   16   0.129   0.018   0.075
    1UNL    C16   17   0.119   0.159   0.019
    1UNL    C17   18  -0.034   0.165   0.010
    1UNL    C18   19  -0.093   0.097   0.133
    1UNL    C19   20   0.025   0.015   0.195
    1UNL     O1   21   0.088   0.067   0.308
    1UNL     N2   22  -0.083   0.099  -0.112
    1UNL    C20   23  -0.233   0.133  -0.136
    1UNL     O2   24  -0.288   0.056  -0.250
    1UNL     H1   25  -0.577  -0.110  -0.067
    1UNL     H2   26  -0.418  -0.118  -0.140
    1UNL     H3   27  -0.448  -0.161   0.045
    1UNL     H4   28  -0.502   0.066   0.079
    1UNL     H5   29  -0.489   0.111  -0.093
    1UNL     H6   30  -0.298   0.204   0.050
    1UNL     H7   31  -0.266  -0.030   0.163
    1UNL     H8   32  -0.119  -0.186   0.053
    1UNL     H9   33  -0.229  -0.157  -0.064
    1UNL    H10   34  -0.055  -0.091  -0.199
    1UNL    H11   35   0.077  -0.179   0.013
    1UNL    H12   36   0.305  -0.139  -0.296
    1UNL    H13   37   0.134  -0.153  -0.303
    1UNL    H14   38   0.241  -0.282  -0.238
    1UNL    H15   39   0.494  -0.182  -0.118
    1UNL    H16   40   0.644  -0.143   0.087
    1UNL    H17   41   0.558  -0.019   0.276
    1UNL    H18   42   0.312   0.069   0.275
    1UNL    H19   43   0.155   0.225   0.098
    1UNL    H20   44   0.160   0.177  -0.078
    1UNL    H21   45  -0.059   0.276   0.004
    1UNL    H22   46  -0.126   0.172   0.212
    1UNL    H23   47  -0.005  -0.087   0.239
    1UNL    H24   48   0.113   0.165   0.296
    1UNL    H25   49  -0.221   0.243  -0.158
    1UNL    H26   50  -0.206   0.064  -0.313
   0.00000   0.00000   0.00000   0.00000   0.00000   0.00000   0.00000   0.00000   0.00000
Generated with MDTraj, t= 32.0
 50
    1UNL     C1    1  -0.465  -0.097  -0.065
    1UNL     C2    2  -0.449   0.046  -0.014
    1UNL     C3    3  -0.302   0.098  -0.004
    1UNL     C4    4  -0.213   0.015   0.097
    1UNL     C5    5  -0.153  -0.103   0.015
    1UNL     C6    6  -0.053  -0.049  -0.091
    1UNL     C7    7   0.090  -0.085  -0.035
    1UNL     N1    8   0.212  -0.104  -0.112
    1UNL     C8    9   0.225  -0.145  -0.247
    1UNL     C9   10   0.326  -0.083  -0.032
    1UNL    C10   11   0.458  -0.121  -0.040
    1UNL    C11   12   0.542  -0.116   0.069
    1UNL    C12   13   0.496  -0.064   0.189
    1UNL    C13   14   0.364  -0.006   0.199
    1UNL    C14   15   0.281  -0.028   0.093
    1UNL    C15   16   0.130   0.017   0.075
    1UNL    C16   17   0.127   0.160   0.023
    1UNL    C17   18  -0.030   0.175   0.008
    1UNL    C18   19  -0.095   0.108   0.139
    1UNL    C19   20   0.031   0.032   0.199
    1UNL     O1   21   0.073   0.102   0.313
    1UNL     N2   22  -0.079   0.092  -0.110
    1UNL    C20   23  -0.228   0.116  -0.138
    1UNL     O2   24  -0.284   0.043  -0.252
    1UNL     H1   25  -0.567  -0.116  -0.099
    1UNL     H2   26  -0.403  -0.107  -0.155
    1UNL     H3   27  -0.438  -0.166   0.017
    1UNL     H4   28  -0.489   0.053   0.087
    1UNL     H5   29  -0.504   0.114  -0.083
    1UNL     H6   30  -0.297   0.192   0.055
    1UNL     H7   31  -0.276  -0.016   0.172
    1UNL     H8   32  -0.104  -0.169   0.083
    1UNL     H9   33  -0.227  -0.164  -0.037
    1UNL    H10   34  -0.056  -0.095  -0.193
    1UNL    H11   35   0.092  -0.185   0.014
    1UNL    H12   36   0.272  -0.067  -0.297
    1UNL    H13   37   0.128  -0.149  -0.290
    1UNL    H14   38   0.283  -0.232  -0.269
    1UNL    H15   39   0.481  -0.179  -0.124
    1UNL    H16   40   0.639  -0.160   0.058
    1UNL    H17   41   0.558  -0.060   0.277
    1UNL    H18   42   0.324   0.023   0.294
    1UNL    H19   43   0.171   0.232   0.095
    1UNL    H20   44   0.172   0.178  -0.071
    1UNL    H21   45  -0.060   0.282  -0.019
    1UNL    H22   46  -0.145   0.184   0.204
    1UNL    H23   47   0.003  -0.071   0.238
    1UNL    H24   48   0.096   0.200   0.284
    1UNL    H25   49  -0.249   0.225  -0.159
    1UNL    H26   50  -0.226   0.005  -0.321
   0.00000   0.00000   0.00000   0.00000   0.00000   0.00000   0.00000   0.00000   0.00000
Generated with MDTraj, t= 33.0
 50
    1UNL     C1    1  -0.486  -0.075  -0.081
    1UNL     C2    2  -0.454   0.056  -0.025
    1UNL     C3    3  -0.303   0.099  -0.012
    1UNL     C4    4  -0.217   0.022   0.095
    1UNL     C5    5  -0.154  -0.103   0.026
    1UNL     C6    6  -0.046  -0.056  -0.080
    1UNL     C7    7   0.090  -0.089  -0.025
    1UNL     N1    8   0.209  -0.095  -0.115
    1UNL     C8    9   0.211  -0.143  -0.248
    1UNL     C9   10   0.320  -0.070  -0.031
    1UNL    C10   11   0.450  -0.107  -0.042
    1UNL    C11   12   0.532  -0.102   0.063
    1UNL    C12   13   0.502  -0.059   0.192
    1UNL    C13   14   0.369  -0.017   0.205
    1UNL    C14   15   0.284  -0.023   0.095
    1UNL    C15   16   0.140   0.016   0.078
    1UNL    C16   17   0.121   0.159   0.025
    1UNL    C17   18  -0.035   0.169   0.005
    1UNL    C18   19  -0.092   0.102   0.138
    1UNL    C19   20   0.039   0.028   0.198
    1UNL     O1   21   0.090   0.084   0.322
    1UNL     N2   22  -0.072   0.089  -0.118
    1UNL    C20   23  -0.227   0.106  -0.146
    1UNL     O2   24  -0.274   0.014  -0.242
    1UNL     H1   25  -0.587  -0.077  -0.124
    1UNL     H2   26  -0.429  -0.094  -0.169
    1UNL     H3   27  -0.478  -0.160  -0.012
    1UNL     H4   28  -0.490   0.067   0.078
    1UNL     H5   29  -0.492   0.142  -0.084
    1UNL     H6   30  -0.289   0.199   0.036
    1UNL     H7   31  -0.278   0.010   0.179
    1UNL     H8   32  -0.115  -0.169   0.108
    1UNL     H9   33  -0.239  -0.149  -0.024
    1UNL    H10   34  -0.058  -0.116  -0.173
    1UNL    H11   35   0.086  -0.179   0.040
    1UNL    H12   36   0.258  -0.082  -0.320
    1UNL    H13   37   0.116  -0.151  -0.282
    1UNL    H14   38   0.263  -0.237  -0.255
    1UNL    H15   39   0.484  -0.150  -0.142
    1UNL    H16   40   0.632  -0.139   0.041
    1UNL    H17   41   0.572  -0.066   0.277
    1UNL    H18   42   0.333   0.029   0.297
    1UNL    H19   43   0.171   0.237   0.088
    1UNL    H20   44   0.158   0.182  -0.072
    1UNL    H21   45  -0.073   0.277  -0.001
    1UNL    H22   46  -0.121   0.178   0.210
    1UNL    H23   47   0.007  -0.076   0.233
    1UNL    H24   48   0.134   0.176   0.309
    1UNL    H25   49  -0.228   0.207  -0.192
    1UNL    H26   50  -0.201  -0.002  -0.304
   0.00000   0.00000   0.00000   0.00000   0.00000   0.00000   0.00000   0.00000   0.00000
Generated with MDTraj, t= 34.0
 50
    1UNL     C1    1  -0.485  -0.075  -0.048
    1UNL     C2    2  -0.447   0.071  -0.013
    1UNL     C3    3  -0.296   0.106  -0.008
    1UNL     C4    4  -0.215   0.009   0.082
    1UNL     C5    5  -0.162  -0.112  -0.012
    1UNL     C6    6  -0.049  -0.053  -0.099
    1UNL     C7    7   0.088  -0.092  -0.034
    1UNL     N1    8   0.223  -0.107  -0.111
    1UNL     C8    9   0.223  -0.178  -0.233
    1UNL     C9   10   0.322  -0.083  -0.020
    1UNL    C10   11   0.452  -0.116  -0.036
    1UNL    C11   12   0.542  -0.077   0.060
    1UNL    C12   13   0.499  -0.020   0.178
    1UNL    C13   14   0.370   0.001   0.204
    1UNL    C14   15   0.281  -0.028   0.099
    1UNL    C15   16   0.134   0.004   0.079
    1UNL    C16   17   0.122   0.150   0.027
    1UNL    C17   18  -0.028   0.165   0.003
    1UNL    C18   19  -0.094   0.097   0.134
    1UNL    C19   20   0.025   0.016   0.198
    1UNL     O1   21   0.076   0.070   0.321
    1UNL     N2   22  -0.077   0.091  -0.115
    1UNL    C20   23  -0.220   0.129  -0.142
    1UNL     O2   24  -0.283   0.042  -0.240
    1UNL     H1   25  -0.591  -0.077  -0.078
    1UNL     H2   26  -0.431  -0.096  -0.137
    1UNL     H3   27  -0.464  -0.144   0.033
    1UNL     H4   28  -0.486   0.088   0.090
    1UNL     H5   29  -0.487   0.143  -0.088
    1UNL     H6   30  -0.285   0.207   0.036
    1UNL     H7   31  -0.273  -0.035   0.161
    1UNL     H8   32  -0.121  -0.187   0.065
    1UNL     H9   33  -0.246  -0.153  -0.066
    1UNL    H10   34  -0.058  -0.096  -0.202
    1UNL    H11   35   0.066  -0.190   0.015
    1UNL    H12   36   0.307  -0.154  -0.293
    1UNL    H13   37   0.139  -0.158  -0.289
    1UNL    H14   38   0.237  -0.281  -0.206
    1UNL    H15   39   0.469  -0.148  -0.132
    1UNL    H16   40   0.646  -0.099   0.051
    1UNL    H17   41   0.574   0.001   0.247
    1UNL    H18   42   0.340   0.062   0.285
    1UNL    H19   43   0.168   0.221   0.098
    1UNL    H20   44   0.179   0.160  -0.064
    1UNL    H21   45  -0.057   0.276  -0.009
    1UNL    H22   46  -0.126   0.171   0.202
    1UNL    H23   47  -0.020  -0.084   0.230
    1UNL    H24   48   0.116   0.158   0.307
    1UNL    H25   49  -0.241   0.229  -0.184
    1UNL    H26   50  -0.223  -0.006  -0.312
   0.00000   0.00000   0.00000   0.00000   0.00000   0.00000   0.00000   0.00000   0.00000
Generated with MDTraj, t= 35.0
 50
    1UNL     C1    1  -0.476  -0.077  -0.063
    1UNL     C2    2  -0.451   0.068  -0.018
    1UNL     C3    3  -0.302   0.109   0.005
    1UNL     C4    4  -0.212   0.013   0.090
    1UNL     C5    5  -0.158  -0.101  -0.007
    1UNL     C6    6  -0.047  -0.050  -0.098
    1UNL     C7    7   0.084  -0.087  -0.035
    1UNL     N1    8   0.211  -0.112  -0.112
    1UNL     C8    9   0.222  -0.217  -0.207
    1UNL     C9   10   0.328  -0.083  -0.030
    1UNL    C10   11   0.462  -0.111  -0.034
    1UNL    C11   12   0.549  -0.074   0.065
    1UNL    C12   13   0.498  -0.006   0.173
    1UNL    C13   14   0.363   0.017   0.183
    1UNL    C14   15   0.276  -0.023   0.086
    1UNL    C15   16   0.128   0.012   0.072
    1UNL    C16   17   0.116   0.154   0.020
    1UNL    C17   18  -0.027   0.165   0.014
    1UNL    C18   19  -0.091   0.092   0.140
    1UNL    C19   20   0.019   0.002   0.193
    1UNL     O1   21   0.079   0.044   0.314
    1UNL     N2   22  -0.073   0.095  -0.111
    1UNL    C20   23  -0.220   0.130  -0.127
    1UNL     O2   24  -0.280   0.062  -0.245
    1UNL     H1   25  -0.578  -0.089  -0.099
    1UNL     H2   26  -0.418  -0.095  -0.150
    1UNL     H3   27  -0.459  -0.152   0.011
    1UNL     H4   28  -0.492   0.082   0.086
    1UNL     H5   29  -0.497   0.135  -0.095
    1UNL     H6   30  -0.302   0.208   0.052
    1UNL     H7   31  -0.266  -0.038   0.174
    1UNL     H8   32  -0.141  -0.199   0.054
    1UNL     H9   33  -0.245  -0.120  -0.071
    1UNL    H10   34  -0.044  -0.100  -0.199
    1UNL    H11   35   0.064  -0.183   0.019
    1UNL    H12   36   0.326  -0.232  -0.206
    1UNL    H13   37   0.193  -0.194  -0.308
    1UNL    H14   38   0.186  -0.306  -0.165
    1UNL    H15   39   0.519  -0.151  -0.120
    1UNL    H16   40   0.654  -0.100   0.056
    1UNL    H17   41   0.569   0.031   0.254
    1UNL    H18   42   0.322   0.069   0.268
    1UNL    H19   43   0.156   0.223   0.096
    1UNL    H20   44   0.166   0.154  -0.078
    1UNL    H21   45  -0.065   0.271  -0.008
    1UNL    H22   46  -0.120   0.159   0.215
    1UNL    H23   47  -0.016  -0.107   0.206
    1UNL    H24   48   0.105   0.133   0.305
    1UNL    H25   49  -0.215   0.233  -0.160
    1UNL    H26   50  -0.204   0.011  -0.272
   0.00000   0.00000   0.00000   0.00000   0.00000   0.00000   0.00000   0.00000   0.00000
Generated with MDTraj, t= 36.0
 50
    1UNL     C1    1  -0.485  -0.072  -0.103
    1UNL     C2    2  -0.457   0.049  -0.016
    1UNL     C3    3  -0.308   0.097  -0.001
    1UNL     C4    4  -0.214   0.000   0.088
    1UNL     C5    5  -0.164  -0.113  -0.007
    1UNL     C6    6  -0.053  -0.051  -0.086
    1UNL     C7    7   0.092  -0.084  -0.022
    1UNL     N1    8   0.213  -0.106  -0.106
    1UNL     C8    9   0.195  -0.221  -0.209
    1UNL     C9   10   0.328  -0.077  -0.026
    1UNL    C10   11   0.459  -0.103  -0.050
    1UNL    C11   12   0.553  -0.083   0.049
    1UNL    C12   13   0.513  -0.029   0.163
    1UNL    C13   14   0.376   0.008   0.193
    1UNL    C14   15   0.282  -0.016   0.093
    1UNL    C15   16   0.136   0.021   0.089
    1UNL    C16   17   0.121   0.162   0.028
    1UNL    C17   18  -0.030   0.170   0.019
    1UNL    C18   19  -0.095   0.093   0.141
    1UNL    C19   20   0.027   0.015   0.201
    1UNL     O1   21   0.079   0.077   0.316
    1UNL     N2   22  -0.084   0.098  -0.101
    1UNL    C20   23  -0.223   0.130  -0.130
    1UNL     O2   24  -0.259   0.052  -0.243
    1UNL     H1   25  -0.585  -0.082  -0.137
    1UNL     H2   26  -0.435  -0.055  -0.198
    1UNL     H3   27  -0.462  -0.170  -0.071
    1UNL     H4   28  -0.485   0.031   0.093
    1UNL     H5   29  -0.515   0.135  -0.058
    1UNL     H6   30  -0.316   0.191   0.057
    1UNL     H7   31  -0.272  -0.045   0.179
    1UNL     H8   32  -0.138  -0.208   0.053
    1UNL     H9   33  -0.253  -0.150  -0.068
    1UNL    H10   34  -0.046  -0.082  -0.195
    1UNL    H11   35   0.078  -0.181   0.030
    1UNL    H12   36   0.292  -0.257  -0.225
    1UNL    H13   37   0.157  -0.187  -0.305
    1UNL    H14   38   0.138  -0.297  -0.169
    1UNL    H15   39   0.497  -0.159  -0.137
    1UNL    H16   40   0.657  -0.104   0.025
    1UNL    H17   41   0.584  -0.015   0.234
    1UNL    H18   42   0.344   0.027   0.294
    1UNL    H19   43   0.168   0.235   0.094
    1UNL    H20   44   0.169   0.145  -0.072
    1UNL    H21   45  -0.055   0.280   0.014
    1UNL    H22   46  -0.131   0.156   0.214
    1UNL    H23   47   0.001  -0.095   0.221
    1UNL    H24   48   0.118   0.159   0.293
    1UNL    H25   49  -0.244   0.232  -0.157
    1UNL    H26   50  -0.205   0.078  -0.317
   0.00000   0.00000   0.00000   0.00000   0.00000   0.00000   0.00000   0.00000   0.00000
Generated with MDTraj, t= 37.0
 50
    1UNL     C1    1  -0.465  -0.085  -0.089
    1UNL     C2    2  -0.455   0.053  -0.026
    1UNL     C3    3  -0.309   0.098  -0.004
    1UNL     C4    4  -0.215   0.017   0.097
    1UNL     C5    5  -0.165  -0.106   0.023
    1UNL     C6    6  -0.058  -0.061  -0.080
    1UNL     C7    7   0.087  -0.093  -0.025
    1UNL     N1    8   0.207  -0.101  -0.111
    1UNL     C8    9   0.204  -0.175  -0.242
    1UNL     C9   10   0.320  -0.081  -0.022
    1UNL    C10   11   0.455  -0.116  -0.042
    1UNL    C11   12   0.551  -0.092   0.060
    1UNL    C12   13   0.504  -0.034   0.175
    1UNL    C13   14   0.376   0.008   0.197
    1UNL    C14   15   0.281  -0.014   0.096
    1UNL    C15   16   0.135   0.013   0.079
    1UNL    C16   17   0.119   0.157   0.015
    1UNL    C17   18  -0.032   0.166   0.012
    1UNL    C18   19  -0.090   0.100   0.145
    1UNL    C19   20   0.032   0.013   0.196
    1UNL     O1   21   0.079   0.076   0.314
    1UNL     N2   22  -0.076   0.092  -0.113
    1UNL    C20   23  -0.221   0.125  -0.133
    1UNL     O2   24  -0.267   0.049  -0.244
    1UNL     H1   25  -0.564  -0.109  -0.112
    1UNL     H2   26  -0.406  -0.072  -0.180
    1UNL     H3   27  -0.430  -0.165  -0.030
    1UNL     H4   28  -0.516   0.031   0.069
    1UNL     H5   29  -0.500   0.132  -0.093
    1UNL     H6   30  -0.318   0.195   0.050
    1UNL     H7   31  -0.282  -0.002   0.193
    1UNL     H8   32  -0.127  -0.175   0.106
    1UNL     H9   33  -0.252  -0.176  -0.015
    1UNL    H10   34  -0.076  -0.118  -0.176
    1UNL    H11   35   0.071  -0.184   0.036
    1UNL    H12   36   0.290  -0.142  -0.294
    1UNL    H13   37   0.121  -0.134  -0.299
    1UNL    H14   38   0.194  -0.277  -0.233
    1UNL    H15   39   0.481  -0.168  -0.128
    1UNL    H16   40   0.654  -0.120   0.042
    1UNL    H17   41   0.585  -0.010   0.251
    1UNL    H18   42   0.346   0.029   0.297
    1UNL    H19   43   0.165   0.229   0.081
    1UNL    H20   44   0.161   0.153  -0.090
    1UNL    H21   45  -0.056   0.276   0.014
    1UNL    H22   46  -0.108   0.171   0.218
    1UNL    H23   47   0.009  -0.097   0.216
    1UNL    H24   48   0.132   0.158   0.298
    1UNL    H25   49  -0.220   0.231  -0.161
    1UNL    H26   50  -0.195   0.069  -0.319
   0.00000   0.00000   0.00000   0.00000   0.00000   0.00000   0.00000   0.00000   0.00000
Generated with MDTraj, t= 38.0
 50
    1UNL     C1    1  -0.473  -0.082  -0.035
    1UNL     C2    2  -0.448   0.068  -0.016
    1UNL     C3    3  -0.299   0.098  -0.005
    1UNL     C4    4  -0.212   0.009   0.090
    1UNL     C5    5  -0.159  -0.106   0.006
    1UNL     C6    6  -0.056  -0.056  -0.097
    1UNL     C7    7   0.080  -0.095  -0.029
    1UNL     N1    8   0.209  -0.106  -0.109
    1UNL     C8    9   0.239  -0.120  -0.251
    1UNL     C9   10   0.322  -0.093  -0.018
    1UNL    C10   11   0.460  -0.126  -0.036
    1UNL    C11   12   0.546  -0.098   0.065
    1UNL    C12   13   0.497  -0.035   0.188
    1UNL    C13   14   0.365  -0.010   0.208
    1UNL    C14   15   0.276  -0.030   0.103
    1UNL    C15   16   0.135   0.009   0.074
    1UNL    C16   17   0.121   0.153   0.013
    1UNL    C17   18  -0.034   0.171   0.006
    1UNL    C18   19  -0.094   0.102   0.131
    1UNL    C19   20   0.028   0.016   0.189
    1UNL     O1   21   0.074   0.086   0.307
    1UNL     N2   22  -0.079   0.092  -0.117
    1UNL    C20   23  -0.223   0.118  -0.143
    1UNL     O2   24  -0.274   0.030  -0.239
    1UNL     H1   25  -0.569  -0.115  -0.012
    1UNL     H2   26  -0.452  -0.108  -0.137
    1UNL     H3   27  -0.416  -0.151   0.023
    1UNL     H4   28  -0.499   0.103   0.082
    1UNL     H5   29  -0.491   0.124  -0.105
    1UNL     H6   30  -0.283   0.194   0.051
    1UNL     H7   31  -0.272  -0.030   0.184
    1UNL     H8   32  -0.131  -0.197   0.069
    1UNL     H9   33  -0.244  -0.138  -0.060
    1UNL    H10   34  -0.049  -0.106  -0.199
    1UNL    H11   35   0.066  -0.195   0.015
    1UNL    H12   36   0.274  -0.029  -0.294
    1UNL    H13   37   0.142  -0.130  -0.291
    1UNL    H14   38   0.284  -0.213  -0.279
    1UNL    H15   39   0.492  -0.165  -0.135
    1UNL    H16   40   0.650  -0.117   0.063
    1UNL    H17   41   0.566  -0.009   0.261
    1UNL    H18   42   0.338   0.052   0.295
    1UNL    H19   43   0.166   0.232   0.074
    1UNL    H20   44   0.157   0.154  -0.093
    1UNL    H21   45  -0.073   0.274  -0.002
    1UNL    H22   46  -0.126   0.165   0.208
    1UNL    H23   47  -0.011  -0.089   0.211
    1UNL    H24   48   0.114   0.178   0.278
    1UNL    H25   49  -0.242   0.221  -0.179
    1UNL    H26   50  -0.238   0.031  -0.327
   0.00000   0.00000   0.00000   0.00000   0.00000   0.00000   0.00000   0.00000   0.00000
Generated with MDTraj, t= 39.0
 50
    1UNL     C1    1  -0.493  -0.064  -0.036
    1UNL     C2    2  -0.446   0.077  -0.019
    1UNL     C3    3  -0.293   0.097  -0.005
    1UNL     C4    4  -0.209   0.011   0.091
    1UNL     C5    5  -0.162  -0.120   0.010
    1UNL     C6    6  -0.052  -0.065  -0.093
    1UNL     C7    7   0.093  -0.089  -0.033
    1UNL     N1    8   0.217  -0.109  -0.108
    1UNL     C8    9   0.225  -0.085  -0.253
    1UNL     C9   10   0.329  -0.084  -0.023
    1UNL    C10   11   0.467  -0.129  -0.030
    1UNL    C11   12   0.541  -0.100   0.081
    1UNL    C12   13   0.493  -0.046   0.200
    1UNL    C13   14   0.361  -0.006   0.213
    1UNL    C14   15   0.286  -0.021   0.097
    1UNL    C15   16   0.137   0.020   0.071
    1UNL    C16   17   0.121   0.155  -0.008
    1UNL    C17   18  -0.034   0.160  -0.004
    1UNL    C18   19  -0.092   0.108   0.132
    1UNL    C19   20   0.028   0.025   0.184
    1UNL     O1   21   0.084   0.063   0.306
    1UNL     N2   22  -0.082   0.076  -0.120
    1UNL    C20   23  -0.228   0.108  -0.143
    1UNL     O2   24  -0.285   0.017  -0.232
    1UNL     H1   25  -0.592  -0.071  -0.005
    1UNL     H2   26  -0.484  -0.098  -0.134
    1UNL     H3   27  -0.448  -0.141   0.024
    1UNL     H4   28  -0.478   0.112   0.087
    1UNL     H5   29  -0.489   0.144  -0.099
    1UNL     H6   30  -0.278   0.198   0.042
    1UNL     H7   31  -0.274  -0.031   0.178
    1UNL     H8   32  -0.120  -0.194   0.084
    1UNL     H9   33  -0.245  -0.168  -0.040
    1UNL    H10   34  -0.066  -0.125  -0.187
    1UNL    H11   35   0.088  -0.183   0.025
    1UNL    H12   36   0.192   0.012  -0.284
    1UNL    H13   37   0.153  -0.147  -0.293
    1UNL    H14   38   0.312  -0.122  -0.308
    1UNL    H15   39   0.496  -0.180  -0.118
    1UNL    H16   40   0.645  -0.137   0.095
    1UNL    H17   41   0.557  -0.032   0.290
    1UNL    H18   42   0.328   0.064   0.283
    1UNL    H19   43   0.165   0.235   0.055
    1UNL    H20   44   0.169   0.159  -0.109
    1UNL    H21   45  -0.072   0.261  -0.026
    1UNL    H22   46  -0.116   0.193   0.192
    1UNL    H23   47  -0.006  -0.083   0.193
    1UNL    H24   48   0.118   0.163   0.304
    1UNL    H25   49  -0.218   0.211  -0.186
    1UNL    H26   50  -0.246   0.017  -0.319
   0.00000   0.00000   0.00000   0.00000   0.00000   0.00000   0.00000   0.00000   0.00000
Generated with MDTraj, t= 40.0
 50
    1UNL     C1    1  -0.480  -0.082  -0.071
    1UNL     C2    2  -0.455   0.062  -0.023
    1UNL     C3    3  -0.301   0.098  -0.006
    1UNL     C4    4  -0.209   0.015   0.093
    1UNL     C5    5  -0.155  -0.105   0.012
    1UNL     C6    6  -0.049  -0.062  -0.091
    1UNL     C7    7   0.085  -0.087  -0.024
    1UNL     N1    8   0.200  -0.113  -0.104
    1UNL     C8    9   0.206  -0.088  -0.250
    1UNL     C9   10   0.311  -0.099  -0.020
    1UNL    C10   11   0.447  -0.135  -0.040
    1UNL    C11   12   0.539  -0.095   0.059
    1UNL    C12   13   0.507  -0.043   0.182
    1UNL    C13   14   0.369  -0.015   0.202
    1UNL    C14   15   0.278  -0.036   0.105
    1UNL    C15   16   0.133   0.018   0.084
    1UNL    C16   17   0.127   0.151   0.011
    1UNL    C17   18  -0.028   0.164   0.005
    1UNL    C18   19  -0.091   0.104   0.135
    1UNL    C19   20   0.034   0.026   0.198
    1UNL     O1   21   0.083   0.098   0.310
    1UNL     N2   22  -0.074   0.083  -0.116
    1UNL    C20   23  -0.219   0.110  -0.136
    1UNL     O2   24  -0.260   0.019  -0.230
    1UNL     H1   25  -0.585  -0.093  -0.067
    1UNL     H2   26  -0.438  -0.090  -0.166
    1UNL     H3   27  -0.445  -0.158  -0.005
    1UNL     H4   28  -0.513   0.072   0.077
    1UNL     H5   29  -0.497   0.130  -0.102
    1UNL     H6   30  -0.301   0.200   0.041
    1UNL     H7   31  -0.262  -0.039   0.180
    1UNL     H8   32  -0.111  -0.178   0.082
    1UNL     H9   33  -0.240  -0.149  -0.033
    1UNL    H10   34  -0.057  -0.122  -0.187
    1UNL    H11   35   0.086  -0.189   0.018
    1UNL    H12   36   0.121  -0.041  -0.291
    1UNL    H13   37   0.228  -0.171  -0.308
    1UNL    H14   38   0.290  -0.019  -0.272
    1UNL    H15   39   0.486  -0.199  -0.121
    1UNL    H16   40   0.637  -0.123   0.042
    1UNL    H17   41   0.579  -0.008   0.253
    1UNL    H18   42   0.342   0.047   0.290
    1UNL    H19   43   0.181   0.235   0.063
    1UNL    H20   44   0.173   0.154  -0.089
    1UNL    H21   45  -0.058   0.267  -0.003
    1UNL    H22   46  -0.120   0.178   0.207
    1UNL    H23   47   0.001  -0.078   0.228
    1UNL    H24   48   0.077   0.196   0.290
    1UNL    H25   49  -0.231   0.215  -0.176
    1UNL    H26   50  -0.204   0.016  -0.319
   0.00000   0.00000   0.00000   0.00000   0.00000   0.00000   0.00000   0.00000   0.00000
Generated with MDTraj, t= 41.0
 50
    1UNL     C1    1  -0.455  -0.085  -0.089
    1UNL     C2    2  -0.454   0.054  -0.034
    1UNL     C3    3  -0.307   0.101  -0.008
    1UNL     C4    4  -0.214   0.017   0.101
    1UNL     C5    5  -0.168  -0.113   0.037
    1UNL     C6    6  -0.062  -0.072  -0.069
    1UNL     C7    7   0.082  -0.103  -0.013
    1UNL     N1    8   0.204  -0.109  -0.100
    1UNL     C8    9   0.201  -0.119  -0.244
    1UNL     C9   10   0.318  -0.087  -0.017
    1UNL    C10   11   0.445  -0.129  -0.043
    1UNL    C11   12   0.543  -0.099   0.050
    1UNL    C12   13   0.510  -0.032   0.167
    1UNL    C13   14   0.376   0.001   0.193
    1UNL    C14   15   0.282  -0.024   0.105
    1UNL    C15   16   0.137   0.009   0.085
    1UNL    C16   17   0.129   0.143   0.011
    1UNL    C17   18  -0.021   0.168  -0.000
    1UNL    C18   19  -0.085   0.109   0.131
    1UNL    C19   20   0.031   0.025   0.197
    1UNL     O1   21   0.079   0.080   0.320
    1UNL     N2   22  -0.079   0.080  -0.108
    1UNL    C20   23  -0.223   0.120  -0.137
    1UNL     O2   24  -0.271   0.053  -0.250
    1UNL     H1   25  -0.552  -0.104  -0.126
    1UNL     H2   26  -0.383  -0.097  -0.165
    1UNL     H3   27  -0.448  -0.169  -0.023
    1UNL     H4   28  -0.518   0.067   0.061
    1UNL     H5   29  -0.492   0.128  -0.110
    1UNL     H6   30  -0.318   0.199   0.047
    1UNL     H7   31  -0.274   0.003   0.194
    1UNL     H8   32  -0.139  -0.175   0.116
    1UNL     H9   33  -0.248  -0.164  -0.010
    1UNL    H10   34  -0.074  -0.135  -0.160
    1UNL    H11   35   0.087  -0.201   0.034
    1UNL    H12   36   0.106  -0.138  -0.284
    1UNL    H13   37   0.274  -0.186  -0.285
    1UNL    H14   38   0.220  -0.019  -0.281
    1UNL    H15   39   0.469  -0.204  -0.114
    1UNL    H16   40   0.654  -0.113   0.031
    1UNL    H17   41   0.583   0.007   0.239
    1UNL    H18   42   0.350   0.042   0.289
    1UNL    H19   43   0.170   0.241   0.054
    1UNL    H20   44   0.173   0.148  -0.088
    1UNL    H21   45  -0.048   0.271  -0.015
    1UNL    H22   46  -0.106   0.198   0.190
    1UNL    H23   47  -0.002  -0.080   0.221
    1UNL    H24   48   0.074   0.174   0.316
    1UNL    H25   49  -0.210   0.229  -0.165
    1UNL    H26   50  -0.200   0.053  -0.318
   0.00000   0.00000   0.00000   0.00000   0.00000   0.00000   0.00000   0.00000   0.00000
Generated with MDTraj, t= 42.0
 50
    1UNL     C1    1  -0.476  -0.072  -0.075
    1UNL     C2    2  -0.454   0.066  -0.015
    1UNL     C3    3  -0.305   0.104   0.001
    1UNL     C4    4  -0.216   0.005   0.090
    1UNL     C5    5  -0.170  -0.107  -0.008
    1UNL     C6    6  -0.051  -0.047  -0.086
    1UNL     C7    7   0.081  -0.091  -0.025
    1UNL     N1    8   0.210  -0.118  -0.097
    1UNL     C8    9   0.211  -0.167  -0.236
    1UNL     C9   10   0.319  -0.097  -0.011
    1UNL    C10   11   0.454  -0.119  -0.038
    1UNL    C11   12   0.551  -0.086   0.056
    1UNL    C12   13   0.504  -0.020   0.169
    1UNL    C13   14   0.374   0.004   0.201
    1UNL    C14   15   0.276  -0.033   0.103
    1UNL    C15   16   0.127   0.008   0.078
    1UNL    C16   17   0.119   0.147   0.011
    1UNL    C17   18  -0.030   0.168   0.010
    1UNL    C18   19  -0.093   0.096   0.140
    1UNL    C19   20   0.028   0.010   0.198
    1UNL     O1   21   0.091   0.081   0.304
    1UNL     N2   22  -0.074   0.105  -0.112
    1UNL    C20   23  -0.219   0.123  -0.134
    1UNL     O2   24  -0.260   0.040  -0.239
    1UNL     H1   25  -0.579  -0.095  -0.087
    1UNL     H2   26  -0.419  -0.082  -0.165
    1UNL     H3   27  -0.445  -0.153  -0.015
    1UNL     H4   28  -0.496   0.064   0.092
    1UNL     H5   29  -0.514   0.145  -0.070
    1UNL     H6   30  -0.300   0.199   0.062
    1UNL     H7   31  -0.269  -0.036   0.178
    1UNL     H8   32  -0.157  -0.194   0.041
    1UNL     H9   33  -0.250  -0.133  -0.075
    1UNL    H10   34  -0.051  -0.095  -0.186
    1UNL    H11   35   0.058  -0.185   0.025
    1UNL    H12   36   0.173  -0.268  -0.245
    1UNL    H13   37   0.311  -0.161  -0.279
    1UNL    H14   38   0.138  -0.122  -0.295
    1UNL    H15   39   0.470  -0.171  -0.134
    1UNL    H16   40   0.653  -0.092   0.041
    1UNL    H17   41   0.575   0.024   0.236
    1UNL    H18   42   0.338   0.030   0.294
    1UNL    H19   43   0.166   0.227   0.077
    1UNL    H20   44   0.165   0.155  -0.089
    1UNL    H21   45  -0.053   0.272   0.013
    1UNL    H22   46  -0.130   0.166   0.217
    1UNL    H23   47  -0.015  -0.088   0.233
    1UNL    H24   48   0.098   0.172   0.287
    1UNL    H25   49  -0.245   0.223  -0.175
    1UNL    H26   50  -0.195   0.030  -0.305
   0.00000   0.00000   0.00000   0.00000   0.00000   0.00000   0.00000   0.00000   0.00000
Generated with MDTraj, t= 43.0
 50
    1UNL     C1    1  -0.490  -0.060  -0.057
    1UNL     C2    2  -0.450   0.083  -0.006
    1UNL     C3    3  -0.301   0.114   0.002
    1UNL     C4    4  -0.216   0.011   0.088
    1UNL     C5    5  -0.163  -0.111   0.002
    1UNL     C6    6  -0.053  -0.063  -0.095
    1UNL     C7    7   0.090  -0.084  -0.041
    1UNL     N1    8   0.217  -0.097  -0.112
    1UNL     C8    9   0.227  -0.202  -0.211
    1UNL     C9   10   0.328  -0.070  -0.022
    1UNL    C10   11   0.464  -0.105  -0.035
    1UNL    C11   12   0.552  -0.092   0.066
    1UNL    C12   13   0.505  -0.038   0.186
    1UNL    C13   14   0.377   0.010   0.192
    1UNL    C14   15   0.284  -0.002   0.087
    1UNL    C15   16   0.133   0.019   0.073
    1UNL    C16   17   0.113   0.156   0.009
    1UNL    C17   18  -0.040   0.164   0.005
    1UNL    C18   19  -0.094   0.091   0.131
    1UNL    C19   20   0.022   0.005   0.185
    1UNL     O1   21   0.074   0.042   0.313
    1UNL     N2   22  -0.082   0.085  -0.111
    1UNL    C20   23  -0.223   0.130  -0.141
    1UNL     O2   24  -0.275   0.042  -0.237
    1UNL     H1   25  -0.595  -0.068  -0.074
    1UNL     H2   26  -0.424  -0.078  -0.141
    1UNL     H3   27  -0.464  -0.136   0.010
    1UNL     H4   28  -0.498   0.084   0.097
    1UNL     H5   29  -0.502   0.163  -0.063
    1UNL     H6   30  -0.283   0.216   0.044
    1UNL     H7   31  -0.264  -0.034   0.173
    1UNL     H8   32  -0.135  -0.194   0.060
    1UNL     H9   33  -0.245  -0.149  -0.054
    1UNL    H10   34  -0.057  -0.115  -0.193
    1UNL    H11   35   0.074  -0.182   0.006
    1UNL    H12   36   0.276  -0.288  -0.158
    1UNL    H13   37   0.291  -0.181  -0.296
    1UNL    H14   38   0.138  -0.253  -0.231
    1UNL    H15   39   0.504  -0.131  -0.130
    1UNL    H16   40   0.654  -0.132   0.045
    1UNL    H17   41   0.574  -0.034   0.268
    1UNL    H18   42   0.321   0.050   0.283
    1UNL    H19   43   0.170   0.242   0.055
    1UNL    H20   44   0.147   0.142  -0.096
    1UNL    H21   45  -0.071   0.265  -0.013
    1UNL    H22   46  -0.119   0.168   0.208
    1UNL    H23   47  -0.007  -0.104   0.185
    1UNL    H24   48   0.101   0.135   0.317
    1UNL    H25   49  -0.213   0.224  -0.197
    1UNL    H26   50  -0.202   0.036  -0.307
   0.00000   0.00000   0.00000   0.00000   0.00000   0.00000   0.00000   0.00000   0.00000
Generated with MDTraj, t= 44.0
 50
    1UNL     C1    1  -0.474  -0.078  -0.064
    1UNL     C2    2  -0.449   0.058  -0.010
    1UNL     C3    3  -0.302   0.107   0.005
    1UNL     C4    4  -0.212   0.014   0.083
    1UNL     C5    5  -0.163  -0.105  -0.010
    1UNL     C6    6  -0.052  -0.043  -0.097
    1UNL     C7    7   0.090  -0.077  -0.037
    1UNL     N1    8   0.214  -0.104  -0.115
    1UNL     C8    9   0.214  -0.213  -0.215
    1UNL     C9   10   0.327  -0.087  -0.029
    1UNL    C10   11   0.455  -0.109  -0.045
    1UNL    C11   12   0.543  -0.081   0.060
    1UNL    C12   13   0.496  -0.032   0.183
    1UNL    C13   14   0.362  -0.013   0.200
    1UNL    C14   15   0.277  -0.030   0.091
    1UNL    C15   16   0.136   0.013   0.073
    1UNL    C16   17   0.124   0.153   0.022
    1UNL    C17   18  -0.032   0.168   0.015
    1UNL    C18   19  -0.091   0.096   0.141
    1UNL    C19   20   0.027   0.014   0.191
    1UNL     O1   21   0.077   0.080   0.307
    1UNL     N2   22  -0.081   0.109  -0.111
    1UNL    C20   23  -0.228   0.132  -0.130
    1UNL     O2   24  -0.263   0.041  -0.234
    1UNL     H1   25  -0.577  -0.103  -0.076
    1UNL     H2   26  -0.416  -0.096  -0.155
    1UNL     H3   27  -0.434  -0.154  -0.004
    1UNL     H4   28  -0.501   0.082   0.087
    1UNL     H5   29  -0.495   0.129  -0.082
    1UNL     H6   30  -0.303   0.208   0.054
    1UNL     H7   31  -0.263  -0.032   0.164
    1UNL     H8   32  -0.126  -0.188   0.056
    1UNL     H9   33  -0.234  -0.158  -0.066
    1UNL    H10   34  -0.044  -0.086  -0.199
    1UNL    H11   35   0.069  -0.176   0.009
    1UNL    H12   36   0.263  -0.302  -0.168
    1UNL    H13   37   0.278  -0.192  -0.299
    1UNL    H14   38   0.116  -0.252  -0.233
    1UNL    H15   39   0.495  -0.132  -0.144
    1UNL    H16   40   0.646  -0.104   0.052
    1UNL    H17   41   0.567  -0.027   0.268
    1UNL    H18   42   0.327   0.038   0.286
    1UNL    H19   43   0.163   0.230   0.092
    1UNL    H20   44   0.180   0.151  -0.077
    1UNL    H21   45  -0.055   0.271   0.010
    1UNL    H22   46  -0.126   0.166   0.223
    1UNL    H23   47   0.003  -0.096   0.208
    1UNL    H24   48   0.106   0.173   0.276
    1UNL    H25   49  -0.254   0.228  -0.174
    1UNL    H26   50  -0.201   0.056  -0.317
   0.00000   0.00000   0.00000   0.00000   0.00000   0.00000   0.00000   0.00000   0.00000
Generated with MDTraj, t= 45.0
 50
    1UNL     C1    1  -0.472  -0.081  -0.097
    1UNL     C2    2  -0.455   0.050  -0.029
    1UNL     C3    3  -0.306   0.091  -0.004
    1UNL     C4    4  -0.218   0.010   0.104
    1UNL     C5    5  -0.163  -0.106   0.024
    1UNL     C6    6  -0.055  -0.062  -0.081
    1UNL     C7    7   0.086  -0.091  -0.022
    1UNL     N1    8   0.206  -0.103  -0.107
    1UNL     C8    9   0.209  -0.171  -0.234
    1UNL     C9   10   0.324  -0.083  -0.025
    1UNL    C10   11   0.451  -0.135  -0.041
    1UNL    C11   12   0.548  -0.105   0.060
    1UNL    C12   13   0.513  -0.032   0.171
    1UNL    C13   14   0.380   0.007   0.194
    1UNL    C14   15   0.286  -0.023   0.097
    1UNL    C15   16   0.144   0.019   0.082
    1UNL    C16   17   0.124   0.159   0.016
    1UNL    C17   18  -0.029   0.171   0.006
    1UNL    C18   19  -0.093   0.108   0.139
    1UNL    C19   20   0.033   0.027   0.196
    1UNL     O1   21   0.081   0.079   0.320
    1UNL     N2   22  -0.078   0.088  -0.105
    1UNL    C20   23  -0.224   0.113  -0.131
    1UNL     O2   24  -0.286   0.069  -0.254
    1UNL     H1   25  -0.576  -0.103  -0.120
    1UNL     H2   26  -0.401  -0.095  -0.179
    1UNL     H3   27  -0.437  -0.156  -0.028
    1UNL     H4   28  -0.507   0.056   0.069
    1UNL     H5   29  -0.509   0.127  -0.089
    1UNL     H6   30  -0.311   0.188   0.048
    1UNL     H7   31  -0.275  -0.015   0.188
    1UNL     H8   32  -0.124  -0.189   0.091
    1UNL     H9   33  -0.247  -0.156  -0.020
    1UNL    H10   34  -0.070  -0.123  -0.173
    1UNL    H11   35   0.079  -0.186   0.037
    1UNL    H12   36   0.177  -0.274  -0.224
    1UNL    H13   37   0.310  -0.163  -0.267
    1UNL    H14   38   0.134  -0.125  -0.301
    1UNL    H15   39   0.475  -0.195  -0.128
    1UNL    H16   40   0.645  -0.153   0.054
    1UNL    H17   41   0.584  -0.009   0.242
    1UNL    H18   42   0.355   0.075   0.272
    1UNL    H19   43   0.167   0.238   0.079
    1UNL    H20   44   0.181   0.149  -0.083
    1UNL    H21   45  -0.052   0.275  -0.000
    1UNL    H22   46  -0.128   0.186   0.214
    1UNL    H23   47   0.005  -0.081   0.218
    1UNL    H24   48   0.125   0.174   0.316
    1UNL    H25   49  -0.224   0.220  -0.154
    1UNL    H26   50  -0.231   0.096  -0.325
   0.00000   0.00000   0.00000   0.00000   0.00000   0.00000   0.00000   0.00000   0.00000
Generated with MDTraj, t= 46.0
 50
    1UNL     C1    1  -0.477  -0.085  -0.071
    1UNL     C2    2  -0.447   0.053  -0.020
    1UNL     C3    3  -0.300   0.099  -0.011
    1UNL     C4    4  -0.210   0.011   0.090
    1UNL     C5    5  -0.150  -0.100   0.007
    1UNL     C6    6  -0.050  -0.051  -0.092
    1UNL     C7    7   0.082  -0.096  -0.024
    1UNL     N1    8   0.202  -0.119  -0.105
    1UNL     C8    9   0.204  -0.152  -0.248
    1UNL     C9   10   0.314  -0.093  -0.020
    1UNL    C10   11   0.448  -0.134  -0.043
    1UNL    C11   12   0.536  -0.093   0.059
    1UNL    C12   13   0.494  -0.034   0.179
    1UNL    C13   14   0.362   0.007   0.199
    1UNL    C14   15   0.275  -0.031   0.100
    1UNL    C15   16   0.133   0.011   0.081
    1UNL    C16   17   0.119   0.161   0.024
    1UNL    C17   18  -0.029   0.171   0.009
    1UNL    C18   19  -0.089   0.102   0.139
    1UNL    C19   20   0.035   0.023   0.200
    1UNL     O1   21   0.097   0.086   0.319
    1UNL     N2   22  -0.074   0.100  -0.112
    1UNL    C20   23  -0.220   0.121  -0.138
    1UNL     O2   24  -0.261   0.035  -0.240
    1UNL     H1   25  -0.586  -0.098  -0.062
    1UNL     H2   26  -0.429  -0.099  -0.165
    1UNL     H3   27  -0.421  -0.156  -0.007
    1UNL     H4   28  -0.502   0.056   0.076
    1UNL     H5   29  -0.497   0.130  -0.079
    1UNL     H6   30  -0.303   0.196   0.041
    1UNL     H7   31  -0.268  -0.024   0.170
    1UNL     H8   32  -0.108  -0.180   0.078
    1UNL     H9   33  -0.232  -0.149  -0.058
    1UNL    H10   34  -0.062  -0.093  -0.194
    1UNL    H11   35   0.075  -0.198   0.023
    1UNL    H12   36   0.142  -0.233  -0.278
    1UNL    H13   37   0.306  -0.166  -0.276
    1UNL    H14   38   0.156  -0.057  -0.291
    1UNL    H15   39   0.479  -0.201  -0.120
    1UNL    H16   40   0.643  -0.112   0.034
    1UNL    H17   41   0.569   0.001   0.257
    1UNL    H18   42   0.334   0.070   0.288
    1UNL    H19   43   0.156   0.228   0.103
    1UNL    H20   44   0.177   0.187  -0.072
    1UNL    H21   45  -0.063   0.273   0.005
    1UNL    H22   46  -0.123   0.183   0.214
    1UNL    H23   47  -0.001  -0.082   0.224
    1UNL    H24   48   0.126   0.182   0.304
    1UNL    H25   49  -0.238   0.223  -0.178
    1UNL    H26   50  -0.218   0.058  -0.327
   0.00000   0.00000   0.00000   0.00000   0.00000   0.00000   0.00000   0.00000   0.00000
Generated with MDTraj, t= 47.0
 50
    1UNL     C1    1  -0.492  -0.067  -0.023
    1UNL     C2    2  -0.449   0.076  -0.023
    1UNL     C3    3  -0.294   0.105  -0.011
    1UNL     C4    4  -0.217   0.017   0.083
    1UNL     C5    5  -0.158  -0.107   0.005
    1UNL     C6    6  -0.048  -0.066  -0.093
    1UNL     C7    7   0.091  -0.097  -0.024
    1UNL     N1    8   0.217  -0.112  -0.103
    1UNL     C8    9   0.232  -0.140  -0.253
    1UNL     C9   10   0.327  -0.074  -0.026
    1UNL    C10   11   0.463  -0.102  -0.044
    1UNL    C11   12   0.549  -0.097   0.066
    1UNL    C12   13   0.503  -0.047   0.189
    1UNL    C13   14   0.369  -0.003   0.203
    1UNL    C14   15   0.281  -0.027   0.101
    1UNL    C15   16   0.130   0.009   0.081
    1UNL    C16   17   0.124   0.148   0.010
    1UNL    C17   18  -0.026   0.158   0.000
    1UNL    C18   19  -0.095   0.103   0.131
    1UNL    C19   20   0.020   0.019   0.196
    1UNL     O1   21   0.068   0.072   0.321
    1UNL     N2   22  -0.074   0.079  -0.125
    1UNL    C20   23  -0.222   0.116  -0.146
    1UNL     O2   24  -0.290   0.039  -0.239
    1UNL     H1   25  -0.601  -0.077  -0.021
    1UNL     H2   26  -0.447  -0.122  -0.102
    1UNL     H3   27  -0.454  -0.125   0.065
    1UNL     H4   28  -0.504   0.136   0.047
    1UNL     H5   29  -0.477   0.127  -0.116
    1UNL     H6   30  -0.282   0.201   0.040
    1UNL     H7   31  -0.280  -0.017   0.158
    1UNL     H8   32  -0.103  -0.178   0.078
    1UNL     H9   33  -0.244  -0.170  -0.045
    1UNL    H10   34  -0.063  -0.120  -0.186
    1UNL    H11   35   0.084  -0.197   0.025
    1UNL    H12   36   0.156  -0.204  -0.290
    1UNL    H13   37   0.328  -0.182  -0.282
    1UNL    H14   38   0.210  -0.040  -0.302
    1UNL    H15   39   0.490  -0.158  -0.134
    1UNL    H16   40   0.652  -0.104   0.059
    1UNL    H17   41   0.568  -0.036   0.271
    1UNL    H18   42   0.335   0.028   0.295
    1UNL    H19   43   0.163   0.229   0.074
    1UNL    H20   44   0.172   0.156  -0.093
    1UNL    H21   45  -0.066   0.256  -0.026
    1UNL    H22   46  -0.114   0.191   0.204
    1UNL    H23   47  -0.014  -0.087   0.221
    1UNL    H24   48   0.100   0.157   0.301
    1UNL    H25   49  -0.224   0.219  -0.188
    1UNL    H26   50  -0.249   0.043  -0.334
   0.00000   0.00000   0.00000   0.00000   0.00000   0.00000   0.00000   0.00000   0.00000
Generated with MDTraj, t= 48.0
 50
    1UNL     C1    1  -0.485  -0.065  -0.050
    1UNL     C2    2  -0.444   0.077  -0.010
    1UNL     C3    3  -0.294   0.111  -0.004
    1UNL     C4    4  -0.210   0.021   0.094
    1UNL     C5    5  -0.162  -0.102   0.002
    1UNL     C6    6  -0.049  -0.058  -0.103
    1UNL     C7    7   0.087  -0.094  -0.036
    1UNL     N1    8   0.213  -0.109  -0.112
    1UNL     C8    9   0.221  -0.145  -0.256
    1UNL     C9   10   0.321  -0.083  -0.027
    1UNL    C10   11   0.463  -0.108  -0.036
    1UNL    C11   12   0.542  -0.092   0.073
    1UNL    C12   13   0.488  -0.035   0.190
    1UNL    C13   14   0.355   0.001   0.198
    1UNL    C14   15   0.275  -0.030   0.097
    1UNL    C15   16   0.132   0.007   0.079
    1UNL    C16   17   0.132   0.149   0.019
    1UNL    C17   18  -0.022   0.174   0.013
    1UNL    C18   19  -0.092   0.101   0.135
    1UNL    C19   20   0.027   0.010   0.192
    1UNL     O1   21   0.082   0.072   0.307
    1UNL     N2   22  -0.073   0.094  -0.114
    1UNL    C20   23  -0.227   0.111  -0.144
    1UNL     O2   24  -0.274   0.005  -0.227
    1UNL     H1   25  -0.594  -0.075  -0.039
    1UNL     H2   26  -0.451  -0.096  -0.148
    1UNL     H3   27  -0.440  -0.138   0.020
    1UNL     H4   28  -0.479   0.097   0.088
    1UNL     H5   29  -0.502   0.147  -0.070
    1UNL     H6   30  -0.285   0.210   0.039
    1UNL     H7   31  -0.271  -0.021   0.166
    1UNL     H8   32  -0.134  -0.197   0.064
    1UNL     H9   33  -0.255  -0.134  -0.059
    1UNL    H10   34  -0.073  -0.095  -0.203
    1UNL    H11   35   0.070  -0.194   0.011
    1UNL    H12   36   0.129  -0.195  -0.281
    1UNL    H13   37   0.294  -0.227  -0.275
    1UNL    H14   38   0.230  -0.058  -0.324
    1UNL    H15   39   0.501  -0.135  -0.131
    1UNL    H16   40   0.653  -0.115   0.076
    1UNL    H17   41   0.550  -0.019   0.277
    1UNL    H18   42   0.301   0.027   0.295
    1UNL    H19   43   0.198   0.224   0.070
    1UNL    H20   44   0.174   0.138  -0.084
    1UNL    H21   45  -0.051   0.280   0.003
    1UNL    H22   46  -0.125   0.182   0.211
    1UNL    H23   47  -0.019  -0.087   0.231
    1UNL    H24   48   0.110   0.158   0.286
    1UNL    H25   49  -0.246   0.202  -0.204
    1UNL    H26   50  -0.242   0.006  -0.316
   0.00000   0.00000   0.00000   0.00000   0.00000   0.00000   0.00000   0.00000   0.00000
Generated with MDTraj, t= 49.0
 50
    1UNL     C1    1  -0.489  -0.085  -0.091
    1UNL     C2    2  -0.458   0.046  -0.015
    1UNL     C3    3  -0.307   0.101  -0.003
    1UNL     C4    4  -0.216   0.014   0.091
    1UNL     C5    5  -0.168  -0.110   0.017
    1UNL     C6    6  -0.056  -0.058  -0.078
    1UNL     C7    7   0.087  -0.093  -0.016
    1UNL     N1    8   0.211  -0.108  -0.103
    1UNL     C8    9   0.213  -0.160  -0.237
    1UNL     C9   10   0.323  -0.085  -0.019
    1UNL    C10   11   0.459  -0.130  -0.040
    1UNL    C11   12   0.551  -0.110   0.061
    1UNL    C12   13   0.515  -0.032   0.173
    1UNL    C13   14   0.386   0.014   0.189
    1UNL    C14   15   0.291  -0.014   0.096
    1UNL    C15   16   0.137   0.011   0.082
    1UNL    C16   17   0.123   0.147   0.017
    1UNL    C17   18  -0.030   0.165   0.010
    1UNL    C18   19  -0.089   0.095   0.141
    1UNL    C19   20   0.032   0.016   0.204
    1UNL     O1   21   0.080   0.088   0.312
    1UNL     N2   22  -0.080   0.092  -0.114
    1UNL    C20   23  -0.229   0.128  -0.138
    1UNL     O2   24  -0.279   0.072  -0.259
    1UNL     H1   25  -0.599  -0.091  -0.110
    1UNL     H2   26  -0.433  -0.088  -0.188
    1UNL     H3   27  -0.457  -0.171  -0.033
    1UNL     H4   28  -0.514   0.039   0.074
    1UNL     H5   29  -0.509   0.124  -0.070
    1UNL     H6   30  -0.318   0.191   0.055
    1UNL     H7   31  -0.265  -0.011   0.178
    1UNL     H8   32  -0.121  -0.187   0.092
    1UNL     H9   33  -0.246  -0.164  -0.044
    1UNL    H10   34  -0.062  -0.108  -0.174
    1UNL    H11   35   0.073  -0.189   0.037
    1UNL    H12   36   0.119  -0.216  -0.257
    1UNL    H13   37   0.279  -0.252  -0.239
    1UNL    H14   38   0.230  -0.088  -0.312
    1UNL    H15   39   0.492  -0.147  -0.146
    1UNL    H16   40   0.645  -0.153   0.058
    1UNL    H17   41   0.581  -0.020   0.265
    1UNL    H18   42   0.360   0.061   0.280
    1UNL    H19   43   0.167   0.225   0.086
    1UNL    H20   44   0.181   0.163  -0.077
    1UNL    H21   45  -0.067   0.269   0.007
    1UNL    H22   46  -0.117   0.168   0.227
    1UNL    H23   47   0.003  -0.087   0.244
    1UNL    H24   48   0.119   0.168   0.274
    1UNL    H25   49  -0.236   0.236  -0.162
    1UNL    H26   50  -0.239  -0.016  -0.270
   0.00000   0.00000   0.00000   0.00000   0.00000   0.00000   0.00000   0.00000   0.00000
Generated with MDTraj, t= 50.0
 50
    1UNL     C1    1  -0.447  -0.091  -0.096
    1UNL     C2    2  -0.450   0.041  -0.012
    1UNL     C3    3  -0.306   0.107  -0.001
    1UNL     C4    4  -0.219   0.014   0.100
    1UNL     C5    5  -0.166  -0.099   0.011
    1UNL     C6    6  -0.060  -0.044  -0.093
    1UNL     C7    7   0.078  -0.092  -0.037
    1UNL     N1    8   0.208  -0.111  -0.113
    1UNL     C8    9   0.201  -0.203  -0.225
    1UNL     C9   10   0.316  -0.090  -0.024
    1UNL    C10   11   0.453  -0.121  -0.042
    1UNL    C11   12   0.547  -0.090   0.056
    1UNL    C12   13   0.506  -0.024   0.170
    1UNL    C13   14   0.368   0.007   0.192
    1UNL    C14   15   0.274  -0.025   0.096
    1UNL    C15   16   0.129   0.010   0.079
    1UNL    C16   17   0.118   0.155   0.026
    1UNL    C17   18  -0.031   0.174   0.019
    1UNL    C18   19  -0.088   0.100   0.143
    1UNL    C19   20   0.029   0.020   0.202
    1UNL     O1   21   0.093   0.078   0.314
    1UNL     N2   22  -0.074   0.103  -0.102
    1UNL    C20   23  -0.220   0.133  -0.133
    1UNL     O2   24  -0.267   0.055  -0.244
    1UNL     H1   25  -0.526  -0.097  -0.175
    1UNL     H2   26  -0.353  -0.106  -0.157
    1UNL     H3   27  -0.460  -0.186  -0.047
    1UNL     H4   28  -0.498   0.025   0.079
    1UNL     H5   29  -0.510   0.117  -0.057
    1UNL     H6   30  -0.326   0.201   0.050
    1UNL     H7   31  -0.277  -0.010   0.182
    1UNL     H8   32  -0.113  -0.183   0.070
    1UNL     H9   33  -0.237  -0.164  -0.037
    1UNL    H10   34  -0.079  -0.088  -0.190
    1UNL    H11   35   0.064  -0.192   0.004
    1UNL    H12   36   0.105  -0.264  -0.237
    1UNL    H13   37   0.271  -0.290  -0.209
    1UNL    H14   38   0.220  -0.146  -0.310
    1UNL    H15   39   0.485  -0.147  -0.138
    1UNL    H16   40   0.653  -0.122   0.046
    1UNL    H17   41   0.569  -0.018   0.247
    1UNL    H18   42   0.340   0.067   0.277
    1UNL    H19   43   0.180   0.233   0.082
    1UNL    H20   44   0.161   0.165  -0.074
    1UNL    H21   45  -0.065   0.282   0.015
    1UNL    H22   46  -0.123   0.183   0.214
    1UNL    H23   47  -0.000  -0.085   0.228
    1UNL    H24   48   0.130   0.173   0.295
    1UNL    H25   49  -0.225   0.239  -0.163
    1UNL    H26   50  -0.241   0.109  -0.330
   0.00000   0.00000   0.00000   0.00000   0.00000   0.00000   0.00000   0.00000   0.00000
Generated with MDTraj, t= 51.0
 50
    1UNL     C1    1  -0.494  -0.065  -0.076
    1UNL     C2    2  -0.452   0.072  -0.013
    1UNL     C3    3  -0.302   0.102  -0.006
    1UNL     C4    4  -0.215   0.004   0.082
    1UNL     C5    5  -0.154  -0.112  -0.000
    1UNL     C6    6  -0.045  -0.058  -0.090
    1UNL     C7    7   0.094  -0.086  -0.024
    1UNL     N1    8   0.216  -0.097  -0.108
    1UNL     C8    9   0.214  -0.218  -0.199
    1UNL     C9   10   0.331  -0.064  -0.035
    1UNL    C10   11   0.461  -0.101  -0.054
    1UNL    C11   12   0.552  -0.086   0.049
    1UNL    C12   13   0.512  -0.044   0.175
    1UNL    C13   14   0.379  -0.001   0.196
    1UNL    C14   15   0.285  -0.019   0.094
    1UNL    C15   16   0.134   0.017   0.084
    1UNL    C16   17   0.110   0.156   0.026
    1UNL    C17   18  -0.040   0.166   0.008
    1UNL    C18   19  -0.097   0.096   0.138
    1UNL    C19   20   0.027   0.015   0.202
    1UNL     O1   21   0.075   0.066   0.320
    1UNL     N2   22  -0.078   0.094  -0.117
    1UNL    C20   23  -0.225   0.124  -0.136
    1UNL     O2   24  -0.274   0.051  -0.250
    1UNL     H1   25  -0.607  -0.064  -0.079
    1UNL     H2   26  -0.451  -0.090  -0.176
    1UNL     H3   27  -0.466  -0.144  -0.007
    1UNL     H4   28  -0.484   0.072   0.087
    1UNL     H5   29  -0.510   0.146  -0.064
    1UNL     H6   30  -0.304   0.201   0.043
    1UNL     H7   31  -0.266  -0.039   0.161
    1UNL     H8   32  -0.125  -0.206   0.049
    1UNL     H9   33  -0.227  -0.149  -0.073
    1UNL    H10   34  -0.050  -0.105  -0.186
    1UNL    H11   35   0.095  -0.181   0.030
    1UNL    H12   36   0.114  -0.250  -0.239
    1UNL    H13   37   0.248  -0.310  -0.148
    1UNL    H14   38   0.276  -0.182  -0.280
    1UNL    H15   39   0.502  -0.147  -0.145
    1UNL    H16   40   0.652  -0.117   0.031
    1UNL    H17   41   0.594  -0.046   0.257
    1UNL    H18   42   0.349   0.047   0.289
    1UNL    H19   43   0.154   0.231   0.101
    1UNL    H20   44   0.168   0.176  -0.063
    1UNL    H21   45  -0.058   0.278   0.011
    1UNL    H22   46  -0.143   0.167   0.216
    1UNL    H23   47  -0.002  -0.090   0.229
    1UNL    H24   48   0.100   0.169   0.320
    1UNL    H25   49  -0.231   0.227  -0.171
    1UNL    H26   50  -0.347   0.089  -0.304
   0.00000   0.00000   0.00000   0.00000   0.00000   0.00000   0.00000   0.00000   0.00000
Generated with MDTraj, t= 52.0
 50
    1UNL     C1    1  -0.490  -0.063  -0.051
    1UNL     C2    2  -0.451   0.083  -0.015
    1UNL     C3    3  -0.300   0.109  -0.004
    1UNL     C4    4  -0.215   0.018   0.087
    1UNL     C5    5  -0.157  -0.100  -0.006
    1UNL     C6    6  -0.047  -0.047  -0.105
    1UNL     C7    7   0.091  -0.086  -0.040
    1UNL     N1    8   0.218  -0.115  -0.113
    1UNL     C8    9   0.223  -0.196  -0.234
    1UNL     C9   10   0.328  -0.082  -0.029
    1UNL    C10   11   0.460  -0.110  -0.036
    1UNL    C11   12   0.539  -0.072   0.072
    1UNL    C12   13   0.487  -0.016   0.187
    1UNL    C13   14   0.355   0.007   0.196
    1UNL    C14   15   0.277  -0.036   0.090
    1UNL    C15   16   0.136   0.007   0.070
    1UNL    C16   17   0.127   0.155   0.020
    1UNL    C17   18  -0.028   0.169   0.017
    1UNL    C18   19  -0.087   0.098   0.139
    1UNL    C19   20   0.030   0.008   0.191
    1UNL     O1   21   0.087   0.046   0.309
    1UNL     N2   22  -0.075   0.099  -0.110
    1UNL    C20   23  -0.221   0.119  -0.139
    1UNL     O2   24  -0.276   0.019  -0.229
    1UNL     H1   25  -0.596  -0.081  -0.019
    1UNL     H2   26  -0.478  -0.092  -0.157
    1UNL     H3   27  -0.430  -0.134   0.011
    1UNL     H4   28  -0.500   0.121   0.069
    1UNL     H5   29  -0.489   0.141  -0.095
    1UNL     H6   30  -0.299   0.213   0.033
    1UNL     H7   31  -0.271  -0.018   0.170
    1UNL     H8   32  -0.111  -0.179   0.043
    1UNL     H9   33  -0.238  -0.150  -0.062
    1UNL    H10   34  -0.059  -0.089  -0.203
    1UNL    H11   35   0.074  -0.179   0.016
    1UNL    H12   36   0.149  -0.163  -0.307
    1UNL    H13   37   0.200  -0.299  -0.207
    1UNL    H14   38   0.325  -0.169  -0.274
    1UNL    H15   39   0.507  -0.179  -0.106
    1UNL    H16   40   0.647  -0.076   0.057
    1UNL    H17   41   0.552   0.023   0.264
    1UNL    H18   42   0.311   0.050   0.281
    1UNL    H19   43   0.170   0.232   0.091
    1UNL    H20   44   0.174   0.164  -0.078
    1UNL    H21   45  -0.060   0.279   0.004
    1UNL    H22   46  -0.116   0.180   0.213
    1UNL    H23   47   0.002  -0.098   0.207
    1UNL    H24   48   0.094   0.146   0.299
    1UNL    H25   49  -0.225   0.216  -0.187
    1UNL    H26   50  -0.357   0.054  -0.261
   0.00000   0.00000   0.00000   0.00000   0.00000   0.00000   0.00000   0.00000   0.00000
Generated with MDTraj, t= 53.0
 50
    1UNL     C1    1  -0.482  -0.079  -0.039
    1UNL     C2    2  -0.443   0.066  -0.025
    1UNL     C3    3  -0.294   0.098  -0.011
    1UNL     C4    4  -0.211   0.011   0.084
    1UNL     C5    5  -0.162  -0.112   0.011
    1UNL     C6    6  -0.051  -0.066  -0.086
    1UNL     C7    7   0.085  -0.091  -0.021
    1UNL     N1    8   0.212  -0.120  -0.107
    1UNL     C8    9   0.224  -0.137  -0.252
    1UNL     C9   10   0.320  -0.089  -0.020
    1UNL    C10   11   0.450  -0.124  -0.041
    1UNL    C11   12   0.540  -0.093   0.062
    1UNL    C12   13   0.507  -0.033   0.181
    1UNL    C13   14   0.378   0.006   0.203
    1UNL    C14   15   0.282  -0.026   0.102
    1UNL    C15   16   0.139   0.012   0.084
    1UNL    C16   17   0.129   0.149   0.015
    1UNL    C17   18  -0.027   0.160   0.003
    1UNL    C18   19  -0.093   0.095   0.128
    1UNL    C19   20   0.030   0.021   0.200
    1UNL     O1   21   0.064   0.086   0.320
    1UNL     N2   22  -0.072   0.079  -0.116
    1UNL    C20   23  -0.218   0.122  -0.144
    1UNL     O2   24  -0.289   0.055  -0.254
    1UNL     H1   25  -0.589  -0.098  -0.011
    1UNL     H2   26  -0.461  -0.132  -0.132
    1UNL     H3   27  -0.428  -0.139   0.043
    1UNL     H4   28  -0.497   0.110   0.052
    1UNL     H5   29  -0.480   0.129  -0.101
    1UNL     H6   30  -0.290   0.203   0.024
    1UNL     H7   31  -0.272  -0.016   0.170
    1UNL     H8   32  -0.132  -0.182   0.080
    1UNL     H9   33  -0.237  -0.151  -0.060
    1UNL    H10   34  -0.060  -0.117  -0.181
    1UNL    H11   35   0.065  -0.186   0.028
    1UNL    H12   36   0.160  -0.067  -0.302
    1UNL    H13   37   0.197  -0.240  -0.269
    1UNL    H14   38   0.335  -0.118  -0.278
    1UNL    H15   39   0.478  -0.184  -0.125
    1UNL    H16   40   0.645  -0.098   0.040
    1UNL    H17   41   0.582  -0.010   0.247
    1UNL    H18   42   0.342   0.044   0.302
    1UNL    H19   43   0.180   0.222   0.083
    1UNL    H20   44   0.167   0.140  -0.088
    1UNL    H21   45  -0.070   0.265  -0.013
    1UNL    H22   46  -0.131   0.171   0.201
    1UNL    H23   47  -0.003  -0.079   0.234
    1UNL    H24   48   0.093   0.172   0.300
    1UNL    H25   49  -0.210   0.229  -0.171
    1UNL    H26   50  -0.376   0.103  -0.264
   0.00000   0.00000   0.00000   0.00000   0.00000   0.00000   0.00000   0.00000   0.00000
Generated with MDTraj, t= 54.0
 50
    1UNL     C1    1  -0.472  -0.090  -0.090
    1UNL     C2    2  -0.439   0.049  -0.030
    1UNL     C3    3  -0.295   0.099  -0.009
    1UNL     C4    4  -0.208   0.026   0.100
    1UNL     C5    5  -0.162  -0.107   0.025
    1UNL     C6    6  -0.053  -0.058  -0.081
    1UNL     C7    7   0.079  -0.095  -0.023
    1UNL     N1    8   0.199  -0.115  -0.107
    1UNL     C8    9   0.199  -0.089  -0.248
    1UNL     C9   10   0.314  -0.099  -0.022
    1UNL    C10   11   0.446  -0.134  -0.039
    1UNL    C11   12   0.535  -0.109   0.062
    1UNL    C12   13   0.494  -0.048   0.179
    1UNL    C13   14   0.365  -0.005   0.200
    1UNL    C14   15   0.276  -0.027   0.097
    1UNL    C15   16   0.130   0.015   0.078
    1UNL    C16   17   0.122   0.159   0.012
    1UNL    C17   18  -0.031   0.173   0.001
    1UNL    C18   19  -0.082   0.110   0.142
    1UNL    C19   20   0.040   0.029   0.202
    1UNL     O1   21   0.095   0.097   0.313
    1UNL     N2   22  -0.072   0.089  -0.114
    1UNL    C20   23  -0.218   0.109  -0.141
    1UNL     O2   24  -0.260   0.011  -0.231
    1UNL     H1   25  -0.581  -0.113  -0.092
    1UNL     H2   26  -0.423  -0.109  -0.187
    1UNL     H3   27  -0.429  -0.163  -0.012
    1UNL     H4   28  -0.483   0.051   0.065
    1UNL     H5   29  -0.498   0.122  -0.077
    1UNL     H6   30  -0.298   0.201   0.031
    1UNL     H7   31  -0.268   0.019   0.195
    1UNL     H8   32  -0.117  -0.180   0.084
    1UNL     H9   33  -0.245  -0.149  -0.027
    1UNL    H10   34  -0.069  -0.106  -0.176
    1UNL    H11   35   0.067  -0.187   0.035
    1UNL    H12   36   0.145   0.004  -0.262
    1UNL    H13   37   0.148  -0.173  -0.292
    1UNL    H14   38   0.306  -0.089  -0.293
    1UNL    H15   39   0.487  -0.165  -0.137
    1UNL    H16   40   0.637  -0.141   0.053
    1UNL    H17   41   0.574  -0.037   0.265
    1UNL    H18   42   0.331   0.032   0.291
    1UNL    H19   43   0.165   0.229   0.083
    1UNL    H20   44   0.171   0.156  -0.088
    1UNL    H21   45  -0.076   0.278  -0.008
    1UNL    H22   46  -0.096   0.195   0.214
    1UNL    H23   47   0.014  -0.069   0.244
    1UNL    H24   48   0.135   0.178   0.291
    1UNL    H25   49  -0.226   0.207  -0.194
    1UNL    H26   50  -0.345   0.041  -0.284
   0.00000   0.00000   0.00000   0.00000   0.00000   0.00000   0.00000   0.00000   0.00000
Generated with MDTraj, t= 55.0
 50
    1UNL     C1    1  -0.478  -0.089  -0.044
    1UNL     C2    2  -0.453   0.059  -0.024
    1UNL     C3    3  -0.303   0.096  -0.011
    1UNL     C4    4  -0.214   0.013   0.091
    1UNL     C5    5  -0.164  -0.111   0.013
    1UNL     C6    6  -0.056  -0.066  -0.083
    1UNL     C7    7   0.089  -0.093  -0.019
    1UNL     N1    8   0.211  -0.110  -0.102
    1UNL     C8    9   0.206  -0.078  -0.244
    1UNL     C9   10   0.325  -0.091  -0.021
    1UNL    C10   11   0.459  -0.134  -0.034
    1UNL    C11   12   0.549  -0.121   0.067
    1UNL    C12   13   0.508  -0.055   0.181
    1UNL    C13   14   0.377  -0.008   0.195
    1UNL    C14   15   0.283  -0.021   0.096
    1UNL    C15   16   0.134   0.019   0.084
    1UNL    C16   17   0.120   0.150   0.010
    1UNL    C17   18  -0.028   0.168  -0.005
    1UNL    C18   19  -0.094   0.104   0.128
    1UNL    C19   20   0.026   0.035   0.199
    1UNL     O1   21   0.080   0.100   0.312
    1UNL     N2   22  -0.075   0.079  -0.118
    1UNL    C20   23  -0.218   0.109  -0.145
    1UNL     O2   24  -0.279   0.036  -0.248
    1UNL     H1   25  -0.585  -0.115  -0.057
    1UNL     H2   26  -0.419  -0.122  -0.133
    1UNL     H3   27  -0.438  -0.147   0.045
    1UNL     H4   28  -0.510   0.100   0.055
    1UNL     H5   29  -0.496   0.115  -0.102
    1UNL     H6   30  -0.312   0.193   0.039
    1UNL     H7   31  -0.275  -0.013   0.186
    1UNL     H8   32  -0.125  -0.189   0.075
    1UNL     H9   33  -0.235  -0.161  -0.044
    1UNL    H10   34  -0.068  -0.115  -0.179
    1UNL    H11   35   0.088  -0.185   0.042
    1UNL    H12   36   0.179   0.028  -0.257
    1UNL    H13   37   0.127  -0.137  -0.291
    1UNL    H14   38   0.293  -0.114  -0.308
    1UNL    H15   39   0.497  -0.165  -0.126
    1UNL    H16   40   0.645  -0.180   0.063
    1UNL    H17   41   0.571  -0.067   0.262
    1UNL    H18   42   0.359   0.043   0.293
    1UNL    H19   43   0.159   0.232   0.067
    1UNL    H20   44   0.180   0.153  -0.086
    1UNL    H21   45  -0.062   0.277  -0.023
    1UNL    H22   46  -0.137   0.184   0.190
    1UNL    H23   47  -0.010  -0.061   0.235
    1UNL    H24   48   0.120   0.182   0.266
    1UNL    H25   49  -0.231   0.215  -0.178
    1UNL    H26   50  -0.207  -0.016  -0.291
   0.00000   0.00000   0.00000   0.00000   0.00000   0.00000   0.00000   0.00000   0.00000
Generated with MDTraj, t= 56.0
 50
    1UNL     C1    1  -0.480  -0.085  -0.003
    1UNL     C2    2  -0.460   0.064  -0.006
    1UNL     C3    3  -0.308   0.110  -0.010
    1UNL     C4    4  -0.214   0.021   0.078
    1UNL     C5    5  -0.159  -0.104   0.002
    1UNL     C6    6  -0.052  -0.057  -0.098
    1UNL     C7    7   0.090  -0.094  -0.040
    1UNL     N1    8   0.219  -0.115  -0.116
    1UNL     C8    9   0.222  -0.126  -0.259
    1UNL     C9   10   0.325  -0.091  -0.020
    1UNL    C10   11   0.464  -0.126  -0.025
    1UNL    C11   12   0.543  -0.093   0.081
    1UNL    C12   13   0.491  -0.029   0.189
    1UNL    C13   14   0.357  -0.001   0.202
    1UNL    C14   15   0.275  -0.031   0.100
    1UNL    C15   16   0.133   0.009   0.076
    1UNL    C16   17   0.121   0.145   0.013
    1UNL    C17   18  -0.025   0.167   0.004
    1UNL    C18   19  -0.093   0.104   0.127
    1UNL    C19   20   0.022   0.013   0.191
    1UNL     O1   21   0.089   0.070   0.305
    1UNL     N2   22  -0.074   0.092  -0.118
    1UNL    C20   23  -0.232   0.124  -0.146
    1UNL     O2   24  -0.256   0.037  -0.253
    1UNL     H1   25  -0.587  -0.111  -0.009
    1UNL     H2   26  -0.428  -0.136  -0.090
    1UNL     H3   27  -0.442  -0.129   0.091
    1UNL     H4   28  -0.519   0.115   0.065
    1UNL     H5   29  -0.498   0.107  -0.094
    1UNL     H6   30  -0.311   0.209   0.033
    1UNL     H7   31  -0.280  -0.019   0.167
    1UNL     H8   32  -0.134  -0.193   0.057
    1UNL     H9   33  -0.233  -0.146  -0.059
    1UNL    H10   34  -0.066  -0.112  -0.191
    1UNL    H11   35   0.083  -0.192   0.010
    1UNL    H12   36   0.174  -0.039  -0.313
    1UNL    H13   37   0.186  -0.220  -0.306
    1UNL    H14   38   0.325  -0.140  -0.291
    1UNL    H15   39   0.498  -0.165  -0.124
    1UNL    H16   40   0.641  -0.123   0.085
    1UNL    H17   41   0.557  -0.011   0.273
    1UNL    H18   42   0.327   0.051   0.290
    1UNL    H19   43   0.173   0.218   0.074
    1UNL    H20   44   0.173   0.157  -0.087
    1UNL    H21   45  -0.042   0.279  -0.008
    1UNL    H22   46  -0.121   0.174   0.205
    1UNL    H23   47  -0.003  -0.084   0.235
    1UNL    H24   48   0.138   0.163   0.294
    1UNL    H25   49  -0.231   0.228  -0.186
    1UNL    H26   50  -0.338  -0.009  -0.246
   0.00000   0.00000   0.00000   0.00000   0.00000   0.00000   0.00000   0.00000   0.00000
Generated with MDTraj, t= 57.0
 50
    1UNL     C1    1  -0.493  -0.069  -0.035
    1UNL     C2    2  -0.458   0.081  -0.008
    1UNL     C3    3  -0.303   0.112  -0.004
    1UNL     C4    4  -0.219   0.013   0.086
    1UNL     C5    5  -0.161  -0.108  -0.007
    1UNL     C6    6  -0.051  -0.054  -0.102
    1UNL     C7    7   0.091  -0.089  -0.033
    1UNL     N1    8   0.218  -0.090  -0.114
    1UNL     C8    9   0.227  -0.175  -0.233
    1UNL     C9   10   0.330  -0.073  -0.023
    1UNL    C10   11   0.464  -0.110  -0.036
    1UNL    C11   12   0.548  -0.084   0.067
    1UNL    C12   13   0.505  -0.034   0.184
    1UNL    C13   14   0.373  -0.003   0.197
    1UNL    C14   15   0.284  -0.021   0.098
    1UNL    C15   16   0.135   0.010   0.078
    1UNL    C16   17   0.119   0.151   0.015
    1UNL    C17   18  -0.031   0.164   0.007
    1UNL    C18   19  -0.087   0.091   0.134
    1UNL    C19   20   0.027   0.005   0.189
    1UNL     O1   21   0.067   0.058   0.317
    1UNL     N2   22  -0.077   0.089  -0.120
    1UNL    C20   23  -0.228   0.120  -0.146
    1UNL     O2   24  -0.280   0.036  -0.242
    1UNL     H1   25  -0.601  -0.089  -0.048
    1UNL     H2   26  -0.435  -0.114  -0.124
    1UNL     H3   27  -0.460  -0.119   0.057
    1UNL     H4   28  -0.501   0.116   0.082
    1UNL     H5   29  -0.509   0.144  -0.074
    1UNL     H6   30  -0.295   0.210   0.042
    1UNL     H7   31  -0.276  -0.033   0.179
    1UNL     H8   32  -0.114  -0.190   0.046
    1UNL     H9   33  -0.231  -0.172  -0.060
    1UNL    H10   34  -0.048  -0.100  -0.201
    1UNL    H11   35   0.087  -0.191   0.009
    1UNL    H12   36   0.146  -0.158  -0.310
    1UNL    H13   37   0.236  -0.287  -0.216
    1UNL    H14   38   0.319  -0.165  -0.282
    1UNL    H15   39   0.486  -0.162  -0.125
    1UNL    H16   40   0.661  -0.094   0.050
    1UNL    H17   41   0.575   0.005   0.267
    1UNL    H18   42   0.343   0.037   0.293
    1UNL    H19   43   0.174   0.222   0.076
    1UNL    H20   44   0.173   0.159  -0.083
    1UNL    H21   45  -0.060   0.273   0.004
    1UNL    H22   46  -0.116   0.162   0.208
    1UNL    H23   47  -0.003  -0.098   0.199
    1UNL    H24   48   0.104   0.145   0.287
    1UNL    H25   49  -0.236   0.224  -0.182
    1UNL    H26   50  -0.207  -0.024  -0.265
   0.00000   0.00000   0.00000   0.00000   0.00000   0.00000   0.00000   0.00000   0.00000
Generated with MDTraj, t= 58.0
 50
    1UNL     C1    1  -0.486  -0.054  -0.116
    1UNL     C2    2  -0.443   0.053  -0.018
    1UNL     C3    3  -0.300   0.093   0.006
    1UNL     C4    4  -0.213  -0.001   0.095
    1UNL     C5    5  -0.165  -0.117   0.011
    1UNL     C6    6  -0.053  -0.053  -0.082
    1UNL     C7    7   0.088  -0.089  -0.026
    1UNL     N1    8   0.205  -0.101  -0.110
    1UNL     C8    9   0.208  -0.212  -0.203
    1UNL     C9   10   0.326  -0.065  -0.037
    1UNL    C10   11   0.461  -0.098  -0.056
    1UNL    C11   12   0.546  -0.080   0.048
    1UNL    C12   13   0.503  -0.036   0.173
    1UNL    C13   14   0.369   0.000   0.197
    1UNL    C14   15   0.286  -0.016   0.091
    1UNL    C15   16   0.140   0.015   0.077
    1UNL    C16   17   0.118   0.157   0.016
    1UNL    C17   18  -0.037   0.168   0.020
    1UNL    C18   19  -0.095   0.089   0.148
    1UNL    C19   20   0.033   0.016   0.199
    1UNL     O1   21   0.091   0.074   0.317
    1UNL     N2   22  -0.075   0.095  -0.106
    1UNL    C20   23  -0.223   0.124  -0.130
    1UNL     O2   24  -0.278   0.054  -0.242
    1UNL     H1   25  -0.579  -0.109  -0.087
    1UNL     H2   26  -0.496  -0.025  -0.225
    1UNL     H3   27  -0.412  -0.134  -0.108
    1UNL     H4   28  -0.495   0.044   0.075
    1UNL     H5   29  -0.497   0.138  -0.051
    1UNL     H6   30  -0.302   0.185   0.064
    1UNL     H7   31  -0.270  -0.040   0.192
    1UNL     H8   32  -0.131  -0.205   0.063
    1UNL     H9   33  -0.250  -0.147  -0.053
    1UNL    H10   34  -0.065  -0.093  -0.184
    1UNL    H11   35   0.073  -0.187   0.024
    1UNL    H12   36   0.104  -0.246  -0.223
    1UNL    H13   37   0.274  -0.300  -0.167
    1UNL    H14   38   0.255  -0.193  -0.297
    1UNL    H15   39   0.494  -0.167  -0.135
    1UNL    H16   40   0.646  -0.090   0.028
    1UNL    H17   41   0.579  -0.019   0.237
    1UNL    H18   42   0.335   0.030   0.298
    1UNL    H19   43   0.167   0.236   0.075
    1UNL    H20   44   0.159   0.164  -0.086
    1UNL    H21   45  -0.072   0.275   0.022
    1UNL    H22   46  -0.138   0.153   0.221
    1UNL    H23   47   0.015  -0.085   0.230
    1UNL    H24   48   0.103   0.166   0.324
    1UNL    H25   49  -0.242   0.229  -0.153
    1UNL    H26   50  -0.197   0.027  -0.299
   0.00000   0.00000   0.00000   0.00000   0.00000   0.00000   0.00000   0.00000   0.00000
Generated with MDTraj, t= 59.0
 50
    1UNL     C1    1  -0.485  -0.067  -0.136
    1UNL     C2    2  -0.444   0.020  -0.012
    1UNL     C3    3  -0.306   0.093   0.008
    1UNL     C4    4  -0.209   0.007   0.097
    1UNL     C5    5  -0.157  -0.104   0.010
    1UNL     C6    6  -0.049  -0.052  -0.090
    1UNL     C7    7   0.084  -0.092  -0.020
    1UNL     N1    8   0.205  -0.121  -0.103
    1UNL     C8    9   0.210  -0.213  -0.213
    1UNL     C9   10   0.316  -0.097  -0.025
    1UNL    C10   11   0.450  -0.124  -0.052
    1UNL    C11   12   0.544  -0.081   0.041
    1UNL    C12   13   0.509  -0.012   0.156
    1UNL    C13   14   0.378   0.017   0.188
    1UNL    C14   15   0.281  -0.026   0.093
    1UNL    C15   16   0.134   0.017   0.081
    1UNL    C16   17   0.117   0.161   0.024
    1UNL    C17   18  -0.036   0.173   0.017
    1UNL    C18   19  -0.092   0.099   0.149
    1UNL    C19   20   0.038   0.021   0.203
    1UNL     O1   21   0.086   0.074   0.328
    1UNL     N2   22  -0.078   0.099  -0.098
    1UNL    C20   23  -0.224   0.138  -0.124
    1UNL     O2   24  -0.268   0.080  -0.248
    1UNL     H1   25  -0.574  -0.139  -0.131
    1UNL     H2   26  -0.502  -0.010  -0.229
    1UNL     H3   27  -0.401  -0.135  -0.155
    1UNL     H4   28  -0.479  -0.030   0.075
    1UNL     H5   29  -0.517   0.097  -0.012
    1UNL     H6   30  -0.326   0.190   0.055
    1UNL     H7   31  -0.272  -0.023   0.191
    1UNL     H8   32  -0.113  -0.177   0.076
    1UNL     H9   33  -0.249  -0.142  -0.046
    1UNL    H10   34  -0.055  -0.094  -0.193
    1UNL    H11   35   0.064  -0.186   0.035
    1UNL    H12   36   0.106  -0.246  -0.226
    1UNL    H13   37   0.277  -0.301  -0.185
    1UNL    H14   38   0.249  -0.175  -0.308
    1UNL    H15   39   0.474  -0.191  -0.133
    1UNL    H16   40   0.650  -0.107   0.023
    1UNL    H17   41   0.593   0.027   0.224
    1UNL    H18   42   0.356   0.067   0.277
    1UNL    H19   43   0.159   0.235   0.097
    1UNL    H20   44   0.156   0.169  -0.077
    1UNL    H21   45  -0.072   0.277   0.008
    1UNL    H22   46  -0.141   0.159   0.220
    1UNL    H23   47   0.019  -0.081   0.229
    1UNL    H24   48   0.081   0.171   0.329
    1UNL    H25   49  -0.223   0.244  -0.147
    1UNL    H26   50  -0.203   0.005  -0.272
   0.00000   0.00000   0.00000   0.00000   0.00000   0.00000   0.00000   0.00000   0.00000
Generated with MDTraj, t= 60.0
 50
    1UNL     C1    1  -0.496  -0.059  -0.109
    1UNL     C2    2  -0.460   0.056  -0.018
    1UNL     C3    3  -0.309   0.092   0.003
    1UNL     C4    4  -0.219   0.004   0.096
    1UNL     C5    5  -0.160  -0.116   0.015
    1UNL     C6    6  -0.053  -0.064  -0.087
    1UNL     C7    7   0.085  -0.092  -0.030
    1UNL     N1    8   0.208  -0.111  -0.117
    1UNL     C8    9   0.222  -0.199  -0.228
    1UNL     C9   10   0.318  -0.090  -0.024
    1UNL    C10   11   0.453  -0.121  -0.043
    1UNL    C11   12   0.547  -0.080   0.052
    1UNL    C12   13   0.510  -0.014   0.170
    1UNL    C13   14   0.377   0.018   0.186
    1UNL    C14   15   0.282  -0.015   0.089
    1UNL    C15   16   0.136   0.016   0.078
    1UNL    C16   17   0.123   0.159   0.020
    1UNL    C17   18  -0.031   0.160   0.018
    1UNL    C18   19  -0.089   0.094   0.150
    1UNL    C19   20   0.032   0.019   0.201
    1UNL     O1   21   0.091   0.068   0.325
    1UNL     N2   22  -0.080   0.088  -0.105
    1UNL    C20   23  -0.223   0.119  -0.122
    1UNL     O2   24  -0.262   0.064  -0.246
    1UNL     H1   25  -0.608  -0.064  -0.136
    1UNL     H2   26  -0.444  -0.055  -0.204
    1UNL     H3   27  -0.467  -0.151  -0.055
    1UNL     H4   28  -0.505   0.041   0.078
    1UNL     H5   29  -0.511   0.142  -0.051
    1UNL     H6   30  -0.320   0.193   0.049
    1UNL     H7   31  -0.274  -0.031   0.192
    1UNL     H8   32  -0.108  -0.178   0.089
    1UNL     H9   33  -0.244  -0.170  -0.036
    1UNL    H10   34  -0.056  -0.110  -0.188
    1UNL    H11   35   0.083  -0.181   0.035
    1UNL    H12   36   0.138  -0.180  -0.295
    1UNL    H13   37   0.230  -0.301  -0.183
    1UNL    H14   38   0.314  -0.166  -0.284
    1UNL    H15   39   0.485  -0.167  -0.134
    1UNL    H16   40   0.651  -0.119   0.044
    1UNL    H17   41   0.574   0.006   0.252
    1UNL    H18   42   0.332   0.083   0.267
    1UNL    H19   43   0.168   0.238   0.087
    1UNL    H20   44   0.155   0.163  -0.083
    1UNL    H21   45  -0.055   0.267   0.009
    1UNL    H22   46  -0.112   0.172   0.214
    1UNL    H23   47   0.003  -0.079   0.230
    1UNL    H24   48   0.082   0.171   0.319
    1UNL    H25   49  -0.229   0.225  -0.140
    1UNL    H26   50  -0.238   0.113  -0.323
   0.00000   0.00000   0.00000   0.00000   0.00000   0.00000   0.00000   0.00000   0.00000
Generated with MDTraj, t= 61.0
 50
    1UNL     C1    1  -0.480  -0.074  -0.027
    1UNL     C2    2  -0.445   0.074  -0.016
    1UNL     C3    3  -0.295   0.106  -0.001
    1UNL     C4    4  -0.213   0.009   0.085
    1UNL     C5    5  -0.157  -0.101  -0.007
    1UNL     C6    6  -0.048  -0.051  -0.097
    1UNL     C7    7   0.092  -0.081  -0.039
    1UNL     N1    8   0.220  -0.090  -0.114
    1UNL     C8    9   0.212  -0.186  -0.231
    1UNL     C9   10   0.328  -0.073  -0.027
    1UNL    C10   11   0.460  -0.094  -0.047
    1UNL    C11   12   0.548  -0.078   0.062
    1UNL    C12   13   0.493  -0.037   0.188
    1UNL    C13   14   0.357  -0.021   0.210
    1UNL    C14   15   0.276  -0.029   0.097
    1UNL    C15   16   0.133   0.015   0.078
    1UNL    C16   17   0.131   0.154   0.017
    1UNL    C17   18  -0.022   0.171  -0.001
    1UNL    C18   19  -0.087   0.099   0.127
    1UNL    C19   20   0.023   0.007   0.190
    1UNL     O1   21   0.067   0.058   0.317
    1UNL     N2   22  -0.081   0.097  -0.121
    1UNL    C20   23  -0.230   0.119  -0.139
    1UNL     O2   24  -0.277   0.022  -0.232
    1UNL     H1   25  -0.593  -0.085  -0.010
    1UNL     H2   26  -0.464  -0.115  -0.126
    1UNL     H3   27  -0.425  -0.132   0.046
    1UNL     H4   28  -0.493   0.120   0.068
    1UNL     H5   29  -0.485   0.124  -0.101
    1UNL     H6   30  -0.296   0.207   0.045
    1UNL     H7   31  -0.267  -0.051   0.165
    1UNL     H8   32  -0.135  -0.195   0.050
    1UNL     H9   33  -0.242  -0.133  -0.070
    1UNL    H10   34  -0.063  -0.112  -0.190
    1UNL    H11   35   0.090  -0.182   0.006
    1UNL    H12   36   0.136  -0.158  -0.306
    1UNL    H13   37   0.201  -0.284  -0.186
    1UNL    H14   38   0.310  -0.164  -0.289
    1UNL    H15   39   0.506  -0.104  -0.147
    1UNL    H16   40   0.647  -0.099   0.054
    1UNL    H17   41   0.567  -0.024   0.264
    1UNL    H18   42   0.320   0.021   0.298
    1UNL    H19   43   0.175   0.233   0.084
    1UNL    H20   44   0.180   0.148  -0.078
    1UNL    H21   45  -0.041   0.277  -0.007
    1UNL    H22   46  -0.121   0.172   0.193
    1UNL    H23   47  -0.017  -0.087   0.223
    1UNL    H24   48   0.095   0.157   0.296
    1UNL    H25   49  -0.232   0.220  -0.179
    1UNL    H26   50  -0.222   0.036  -0.318
   0.00000   0.00000   0.00000   0.00000   0.00000   0.00000   0.00000   0.00000   0.00000
Generated with MDTraj, t= 62.0
 50
    1UNL     C1    1  -0.482  -0.081   0.001
    1UNL     C2    2  -0.448   0.062  -0.035
    1UNL     C3    3  -0.300   0.101  -0.011
    1UNL     C4    4  -0.213   0.011   0.087
    1UNL     C5    5  -0.162  -0.110   0.000
    1UNL     C6    6  -0.051  -0.053  -0.098
    1UNL     C7    7   0.089  -0.093  -0.035
    1UNL     N1    8   0.216  -0.083  -0.110
    1UNL     C8    9   0.232  -0.156  -0.244
    1UNL     C9   10   0.326  -0.070  -0.022
    1UNL    C10   11   0.456  -0.112  -0.030
    1UNL    C11   12   0.546  -0.108   0.075
    1UNL    C12   13   0.497  -0.057   0.193
    1UNL    C13   14   0.364  -0.008   0.198
    1UNL    C14   15   0.278  -0.014   0.092
    1UNL    C15   16   0.130   0.015   0.072
    1UNL    C16   17   0.114   0.158   0.008
    1UNL    C17   18  -0.034   0.168   0.009
    1UNL    C18   19  -0.088   0.095   0.134
    1UNL    C19   20   0.028   0.008   0.188
    1UNL     O1   21   0.082   0.076   0.302
    1UNL     N2   22  -0.078   0.098  -0.110
    1UNL    C20   23  -0.222   0.120  -0.142
    1UNL     O2   24  -0.281   0.045  -0.245
    1UNL     H1   25  -0.593  -0.091   0.009
    1UNL     H2   26  -0.460  -0.153  -0.078
    1UNL     H3   27  -0.435  -0.119   0.091
    1UNL     H4   28  -0.516   0.128   0.016
    1UNL     H5   29  -0.475   0.077  -0.138
    1UNL     H6   30  -0.305   0.191   0.054
    1UNL     H7   31  -0.271  -0.033   0.171
    1UNL     H8   32  -0.130  -0.201   0.064
    1UNL     H9   33  -0.242  -0.156  -0.054
    1UNL    H10   34  -0.058  -0.099  -0.200
    1UNL    H11   35   0.091  -0.194   0.007
    1UNL    H12   36   0.150  -0.141  -0.318
    1UNL    H13   37   0.240  -0.259  -0.212
    1UNL    H14   38   0.319  -0.103  -0.301
    1UNL    H15   39   0.493  -0.149  -0.121
    1UNL    H16   40   0.654  -0.144   0.051
    1UNL    H17   41   0.565  -0.044   0.281
    1UNL    H18   42   0.319   0.027   0.293
    1UNL    H19   43   0.153   0.240   0.073
    1UNL    H20   44   0.157   0.173  -0.090
    1UNL    H21   45  -0.076   0.267   0.003
    1UNL    H22   46  -0.115   0.176   0.196
    1UNL    H23   47   0.013  -0.091   0.226
    1UNL    H24   48   0.127   0.161   0.273
    1UNL    H25   49  -0.234   0.225  -0.170
    1UNL    H26   50  -0.212  -0.005  -0.302
   0.00000   0.00000   0.00000   0.00000   0.00000   0.00000   0.00000   0.00000   0.00000
Generated with MDTraj, t= 63.0
 50
    1UNL     C1    1  -0.477  -0.108  -0.021
    1UNL     C2    2  -0.448   0.046  -0.019
    1UNL     C3    3  -0.304   0.100  -0.006
    1UNL     C4    4  -0.215   0.010   0.082
    1UNL     C5    5  -0.158  -0.101   0.002
    1UNL     C6    6  -0.052  -0.044  -0.090
    1UNL     C7    7   0.091  -0.078  -0.035
    1UNL     N1    8   0.217  -0.104  -0.110
    1UNL     C8    9   0.226  -0.152  -0.251
    1UNL     C9   10   0.321  -0.088  -0.015
    1UNL    C10   11   0.451  -0.135  -0.032
    1UNL    C11   12   0.542  -0.121   0.071
    1UNL    C12   13   0.500  -0.054   0.185
    1UNL    C13   14   0.371   0.005   0.199
    1UNL    C14   15   0.280  -0.016   0.098
    1UNL    C15   16   0.135   0.022   0.073
    1UNL    C16   17   0.116   0.163   0.010
    1UNL    C17   18  -0.043   0.179   0.008
    1UNL    C18   19  -0.096   0.098   0.135
    1UNL    C19   20   0.032   0.018   0.187
    1UNL     O1   21   0.080   0.087   0.305
    1UNL     N2   22  -0.080   0.106  -0.115
    1UNL    C20   23  -0.226   0.127  -0.141
    1UNL     O2   24  -0.265   0.049  -0.244
    1UNL     H1   25  -0.584  -0.122  -0.030
    1UNL     H2   26  -0.436  -0.159  -0.111
    1UNL     H3   27  -0.443  -0.168   0.064
    1UNL     H4   28  -0.498   0.060   0.077
    1UNL     H5   29  -0.506   0.107  -0.086
    1UNL     H6   30  -0.306   0.194   0.054
    1UNL     H7   31  -0.269  -0.028   0.168
    1UNL     H8   32  -0.118  -0.182   0.074
    1UNL     H9   33  -0.232  -0.150  -0.058
    1UNL    H10   34  -0.055  -0.096  -0.189
    1UNL    H11   35   0.073  -0.174   0.016
    1UNL    H12   36   0.130  -0.147  -0.311
    1UNL    H13   37   0.257  -0.255  -0.245
    1UNL    H14   38   0.288  -0.074  -0.310
    1UNL    H15   39   0.463  -0.206  -0.117
    1UNL    H16   40   0.639  -0.156   0.063
    1UNL    H17   41   0.563  -0.041   0.265
    1UNL    H18   42   0.330   0.044   0.292
    1UNL    H19   43   0.174   0.236   0.068
    1UNL    H20   44   0.167   0.177  -0.086
    1UNL    H21   45  -0.084   0.278  -0.000
    1UNL    H22   46  -0.137   0.156   0.215
    1UNL    H23   47   0.005  -0.081   0.215
    1UNL    H24   48   0.129   0.157   0.267
    1UNL    H25   49  -0.237   0.233  -0.174
    1UNL    H26   50  -0.190   0.022  -0.294
   0.00000   0.00000   0.00000   0.00000   0.00000   0.00000   0.00000   0.00000   0.00000
Generated with MDTraj, t= 64.0
 50
    1UNL     C1    1  -0.482  -0.075  -0.076
    1UNL     C2    2  -0.451   0.057  -0.008
    1UNL     C3    3  -0.306   0.097   0.010
    1UNL     C4    4  -0.212   0.012   0.098
    1UNL     C5    5  -0.151  -0.108   0.017
    1UNL     C6    6  -0.051  -0.056  -0.092
    1UNL     C7    7   0.093  -0.080  -0.037
    1UNL     N1    8   0.214  -0.094  -0.118
    1UNL     C8    9   0.211  -0.178  -0.235
    1UNL     C9   10   0.325  -0.076  -0.031
    1UNL    C10   11   0.461  -0.114  -0.042
    1UNL    C11   12   0.549  -0.098   0.069
    1UNL    C12   13   0.495  -0.043   0.191
    1UNL    C13   14   0.364  -0.008   0.199
    1UNL    C14   15   0.281  -0.021   0.094
    1UNL    C15   16   0.137   0.021   0.073
    1UNL    C16   17   0.122   0.160   0.013
    1UNL    C17   18  -0.035   0.170   0.002
    1UNL    C18   19  -0.089   0.107   0.130
    1UNL    C19   20   0.030   0.023   0.186
    1UNL     O1   21   0.079   0.074   0.309
    1UNL     N2   22  -0.081   0.090  -0.110
    1UNL    C20   23  -0.233   0.116  -0.131
    1UNL     O2   24  -0.273   0.037  -0.236
    1UNL     H1   25  -0.570  -0.064  -0.133
    1UNL     H2   26  -0.400  -0.097  -0.149
    1UNL     H3   27  -0.492  -0.163  -0.010
    1UNL     H4   28  -0.495   0.058   0.092
    1UNL     H5   29  -0.505   0.134  -0.065
    1UNL     H6   30  -0.301   0.201   0.045
    1UNL     H7   31  -0.258  -0.012   0.190
    1UNL     H8   32  -0.096  -0.177   0.089
    1UNL     H9   33  -0.234  -0.162  -0.032
    1UNL    H10   34  -0.060  -0.104  -0.193
    1UNL    H11   35   0.076  -0.176   0.015
    1UNL    H12   36   0.116  -0.160  -0.293
    1UNL    H13   37   0.216  -0.283  -0.206
    1UNL    H14   38   0.291  -0.151  -0.309
    1UNL    H15   39   0.486  -0.173  -0.125
    1UNL    H16   40   0.651  -0.130   0.073
    1UNL    H17   41   0.559  -0.028   0.283
    1UNL    H18   42   0.325   0.029   0.288
    1UNL    H19   43   0.174   0.240   0.066
    1UNL    H20   44   0.179   0.161  -0.082
    1UNL    H21   45  -0.065   0.271  -0.009
    1UNL    H22   46  -0.110   0.185   0.205
    1UNL    H23   47   0.003  -0.077   0.213
    1UNL    H24   48   0.119   0.159   0.309
    1UNL    H25   49  -0.244   0.219  -0.174
    1UNL    H26   50  -0.204   0.025  -0.305
   0.00000   0.00000   0.00000   0.00000   0.00000   0.00000   0.00000   0.00000   0.00000
Generated with MDTraj, t= 65.0
 50
    1UNL     C1    1  -0.492  -0.041  -0.107
    1UNL     C2    2  -0.457   0.068  -0.004
    1UNL     C3    3  -0.305   0.092   0.007
    1UNL     C4    4  -0.212   0.000   0.089
    1UNL     C5    5  -0.154  -0.112   0.003
    1UNL     C6    6  -0.051  -0.058  -0.091
    1UNL     C7    7   0.091  -0.089  -0.027
    1UNL     N1    8   0.208  -0.101  -0.113
    1UNL     C8    9   0.217  -0.207  -0.208
    1UNL     C9   10   0.320  -0.076  -0.034
    1UNL    C10   11   0.459  -0.100  -0.052
    1UNL    C11   12   0.548  -0.074   0.047
    1UNL    C12   13   0.509  -0.028   0.178
    1UNL    C13   14   0.372  -0.008   0.197
    1UNL    C14   15   0.281  -0.027   0.096
    1UNL    C15   16   0.137   0.013   0.080
    1UNL    C16   17   0.121   0.152   0.026
    1UNL    C17   18  -0.028   0.164   0.012
    1UNL    C18   19  -0.092   0.100   0.142
    1UNL    C19   20   0.027   0.021   0.200
    1UNL     O1   21   0.083   0.081   0.312
    1UNL     N2   22  -0.075   0.088  -0.105
    1UNL    C20   23  -0.228   0.109  -0.127
    1UNL     O2   24  -0.279   0.034  -0.240
    1UNL     H1   25  -0.585  -0.091  -0.099
    1UNL     H2   26  -0.488   0.007  -0.205
    1UNL     H3   27  -0.408  -0.115  -0.111
    1UNL     H4   28  -0.495   0.056   0.099
    1UNL     H5   29  -0.508   0.159  -0.045
    1UNL     H6   30  -0.297   0.196   0.043
    1UNL     H7   31  -0.267  -0.040   0.167
    1UNL     H8   32  -0.105  -0.189   0.068
    1UNL     H9   33  -0.236  -0.163  -0.056
    1UNL    H10   34  -0.061  -0.103  -0.193
    1UNL    H11   35   0.083  -0.186   0.023
    1UNL    H12   36   0.138  -0.183  -0.284
    1UNL    H13   37   0.198  -0.306  -0.158
    1UNL    H14   38   0.312  -0.230  -0.260
    1UNL    H15   39   0.499  -0.124  -0.153
    1UNL    H16   40   0.659  -0.095   0.026
    1UNL    H17   41   0.580  -0.001   0.249
    1UNL    H18   42   0.339   0.055   0.286
    1UNL    H19   43   0.149   0.223   0.101
    1UNL    H20   44   0.183   0.175  -0.064
    1UNL    H21   45  -0.056   0.265   0.003
    1UNL    H22   46  -0.140   0.178   0.211
    1UNL    H23   47   0.000  -0.080   0.220
    1UNL    H24   48   0.106   0.178   0.294
    1UNL    H25   49  -0.241   0.215  -0.160
    1UNL    H26   50  -0.214   0.041  -0.323
   0.00000   0.00000   0.00000   0.00000   0.00000   0.00000   0.00000   0.00000   0.00000
Generated with MDTraj, t= 66.0
 50
    1UNL     C1    1  -0.490  -0.050  -0.103
    1UNL     C2    2  -0.451   0.066  -0.021
    1UNL     C3    3  -0.304   0.106  -0.006
    1UNL     C4    4  -0.225   0.007   0.096
    1UNL     C5    5  -0.166  -0.105   0.011
    1UNL     C6    6  -0.053  -0.057  -0.086
    1UNL     C7    7   0.089  -0.094  -0.027
    1UNL     N1    8   0.208  -0.118  -0.104
    1UNL     C8    9   0.220  -0.214  -0.210
    1UNL     C9   10   0.317  -0.091  -0.020
    1UNL    C10   11   0.453  -0.120  -0.049
    1UNL    C11   12   0.542  -0.073   0.043
    1UNL    C12   13   0.507   0.003   0.153
    1UNL    C13   14   0.373   0.031   0.190
    1UNL    C14   15   0.284  -0.021   0.098
    1UNL    C15   16   0.136   0.009   0.085
    1UNL    C16   17   0.118   0.156   0.031
    1UNL    C17   18  -0.032   0.167   0.015
    1UNL    C18   19  -0.091   0.092   0.142
    1UNL    C19   20   0.031   0.008   0.203
    1UNL     O1   21   0.094   0.045   0.328
    1UNL     N2   22  -0.076   0.093  -0.111
    1UNL    C20   23  -0.221   0.126  -0.136
    1UNL     O2   24  -0.270   0.045  -0.244
    1UNL     H1   25  -0.594  -0.083  -0.102
    1UNL     H2   26  -0.466  -0.026  -0.205
    1UNL     H3   27  -0.427  -0.135  -0.076
    1UNL     H4   28  -0.483   0.044   0.084
    1UNL     H5   29  -0.507   0.157  -0.054
    1UNL     H6   30  -0.301   0.204   0.046
    1UNL     H7   31  -0.271  -0.028   0.182
    1UNL     H8   32  -0.134  -0.202   0.056
    1UNL     H9   33  -0.256  -0.141  -0.049
    1UNL    H10   34  -0.073  -0.112  -0.182
    1UNL    H11   35   0.087  -0.197   0.014
    1UNL    H12   36   0.123  -0.218  -0.265
    1UNL    H13   37   0.263  -0.316  -0.172
    1UNL    H14   38   0.296  -0.191  -0.283
    1UNL    H15   39   0.478  -0.165  -0.143
    1UNL    H16   40   0.640  -0.089   0.034
    1UNL    H17   41   0.588   0.047   0.216
    1UNL    H18   42   0.342   0.104   0.257
    1UNL    H19   43   0.157   0.224   0.103
    1UNL    H20   44   0.169   0.166  -0.068
    1UNL    H21   45  -0.060   0.269   0.014
    1UNL    H22   46  -0.121   0.170   0.223
    1UNL    H23   47  -0.002  -0.093   0.210
    1UNL    H24   48   0.128   0.144   0.320
    1UNL    H25   49  -0.230   0.235  -0.161
    1UNL    H26   50  -0.206   0.065  -0.310
   0.00000   0.00000   0.00000   0.00000   0.00000   0.00000   0.00000   0.00000   0.00000
Generated with MDTraj, t= 67.0
 50
    1UNL     C1    1  -0.488  -0.077  -0.070
    1UNL     C2    2  -0.448   0.063  -0.023
    1UNL     C3    3  -0.298   0.105  -0.007
    1UNL     C4    4  -0.209   0.007   0.087
    1UNL     C5    5  -0.163  -0.109  -0.003
    1UNL     C6    6  -0.052  -0.054  -0.098
    1UNL     C7    7   0.079  -0.098  -0.025
    1UNL     N1    8   0.207  -0.120  -0.102
    1UNL     C8    9   0.206  -0.210  -0.220
    1UNL     C9   10   0.321  -0.092  -0.018
    1UNL    C10   11   0.457  -0.110  -0.048
    1UNL    C11   12   0.549  -0.068   0.049
    1UNL    C12   13   0.510  -0.008   0.167
    1UNL    C13   14   0.375   0.015   0.181
    1UNL    C14   15   0.280  -0.024   0.096
    1UNL    C15   16   0.130   0.005   0.082
    1UNL    C16   17   0.125   0.155   0.024
    1UNL    C17   18  -0.027   0.167   0.017
    1UNL    C18   19  -0.089   0.089   0.141
    1UNL    C19   20   0.028   0.008   0.201
    1UNL     O1   21   0.070   0.070   0.327
    1UNL     N2   22  -0.069   0.097  -0.112
    1UNL    C20   23  -0.212   0.134  -0.135
    1UNL     O2   24  -0.275   0.061  -0.241
    1UNL     H1   25  -0.587  -0.096  -0.120
    1UNL     H2   26  -0.413  -0.095  -0.142
    1UNL     H3   27  -0.467  -0.146   0.009
    1UNL     H4   28  -0.494   0.077   0.078
    1UNL     H5   29  -0.495   0.142  -0.088
    1UNL     H6   30  -0.310   0.199   0.049
    1UNL     H7   31  -0.270  -0.032   0.160
    1UNL     H8   32  -0.137  -0.195   0.063
    1UNL     H9   33  -0.241  -0.163  -0.066
    1UNL    H10   34  -0.059  -0.095  -0.201
    1UNL    H11   35   0.068  -0.196   0.025
    1UNL    H12   36   0.103  -0.231  -0.254
    1UNL    H13   37   0.274  -0.302  -0.194
    1UNL    H14   38   0.260  -0.168  -0.304
    1UNL    H15   39   0.483  -0.173  -0.129
    1UNL    H16   40   0.660  -0.092   0.035
    1UNL    H17   41   0.574   0.018   0.246
    1UNL    H18   42   0.350   0.062   0.278
    1UNL    H19   43   0.165   0.220   0.097
    1UNL    H20   44   0.172   0.162  -0.077
    1UNL    H21   45  -0.057   0.268   0.021
    1UNL    H22   46  -0.126   0.165   0.224
    1UNL    H23   47   0.001  -0.092   0.227
    1UNL    H24   48   0.094   0.171   0.321
    1UNL    H25   49  -0.224   0.242  -0.143
    1UNL    H26   50  -0.235   0.104  -0.321
   0.00000   0.00000   0.00000   0.00000   0.00000   0.00000   0.00000   0.00000   0.00000
Generated with MDTraj, t= 68.0
 50
    1UNL     C1    1  -0.483  -0.079  -0.066
    1UNL     C2    2  -0.444   0.062  -0.017
    1UNL     C3    3  -0.297   0.105   0.007
    1UNL     C4    4  -0.208   0.020   0.096
    1UNL     C5    5  -0.164  -0.102   0.009
    1UNL     C6    6  -0.051  -0.051  -0.086
    1UNL     C7    7   0.089  -0.089  -0.034
    1UNL     N1    8   0.216  -0.095  -0.121
    1UNL     C8    9   0.219  -0.198  -0.230
    1UNL     C9   10   0.331  -0.063  -0.034
    1UNL    C10   11   0.465  -0.095  -0.046
    1UNL    C11   12   0.546  -0.095   0.066
    1UNL    C12   13   0.490  -0.050   0.184
    1UNL    C13   14   0.361  -0.009   0.195
    1UNL    C14   15   0.279  -0.018   0.090
    1UNL    C15   16   0.136   0.012   0.078
    1UNL    C16   17   0.124   0.156   0.014
    1UNL    C17   18  -0.033   0.173   0.011
    1UNL    C18   19  -0.093   0.107   0.139
    1UNL    C19   20   0.029   0.013   0.195
    1UNL     O1   21   0.080   0.075   0.311
    1UNL     N2   22  -0.079   0.095  -0.108
    1UNL    C20   23  -0.228   0.123  -0.140
    1UNL     O2   24  -0.276   0.026  -0.234
    1UNL     H1   25  -0.568  -0.087  -0.140
    1UNL     H2   26  -0.404  -0.105  -0.129
    1UNL     H3   27  -0.491  -0.146   0.013
    1UNL     H4   28  -0.502   0.089   0.076
    1UNL     H5   29  -0.486   0.128  -0.099
    1UNL     H6   30  -0.304   0.201   0.064
    1UNL     H7   31  -0.267  -0.007   0.176
    1UNL     H8   32  -0.133  -0.186   0.073
    1UNL     H9   33  -0.248  -0.140  -0.051
    1UNL    H10   34  -0.057  -0.101  -0.186
    1UNL    H11   35   0.079  -0.188   0.013
    1UNL    H12   36   0.118  -0.226  -0.266
    1UNL    H13   37   0.284  -0.284  -0.190
    1UNL    H14   38   0.280  -0.159  -0.313
    1UNL    H15   39   0.498  -0.150  -0.138
    1UNL    H16   40   0.648  -0.133   0.059
    1UNL    H17   41   0.559  -0.045   0.271
    1UNL    H18   42   0.322   0.004   0.296
    1UNL    H19   43   0.161   0.238   0.072
    1UNL    H20   44   0.158   0.154  -0.091
    1UNL    H21   45  -0.066   0.272  -0.009
    1UNL    H22   46  -0.118   0.176   0.230
    1UNL    H23   47  -0.010  -0.082   0.226
    1UNL    H24   48   0.084   0.167   0.282
    1UNL    H25   49  -0.246   0.224  -0.171
    1UNL    H26   50  -0.239   0.058  -0.325
   0.00000   0.00000   0.00000   0.00000   0.00000   0.00000   0.00000   0.00000   0.00000
Generated with MDTraj, t= 69.0
 50
    1UNL     C1    1  -0.490  -0.078  -0.057
    1UNL     C2    2  -0.455   0.051   0.009
    1UNL     C3    3  -0.305   0.099  -0.003
    1UNL     C4    4  -0.212   0.013   0.089
    1UNL     C5    5  -0.157  -0.107   0.003
    1UNL     C6    6  -0.049  -0.052  -0.095
    1UNL     C7    7   0.093  -0.076  -0.031
    1UNL     N1    8   0.215  -0.082  -0.110
    1UNL     C8    9   0.221  -0.155  -0.242
    1UNL     C9   10   0.331  -0.067  -0.026
    1UNL    C10   11   0.457  -0.125  -0.033
    1UNL    C11   12   0.539  -0.130   0.075
    1UNL    C12   13   0.496  -0.067   0.187
    1UNL    C13   14   0.370  -0.003   0.206
    1UNL    C14   15   0.287  -0.008   0.091
    1UNL    C15   16   0.133   0.023   0.079
    1UNL    C16   17   0.123   0.160   0.012
    1UNL    C17   18  -0.031   0.174   0.005
    1UNL    C18   19  -0.094   0.096   0.131
    1UNL    C19   20   0.032   0.025   0.194
    1UNL     O1   21   0.088   0.092   0.305
    1UNL     N2   22  -0.081   0.094  -0.117
    1UNL    C20   23  -0.232   0.113  -0.150
    1UNL     O2   24  -0.276   0.021  -0.243
    1UNL     H1   25  -0.599  -0.097  -0.073
    1UNL     H2   26  -0.457  -0.070  -0.156
    1UNL     H3   27  -0.448  -0.164  -0.017
    1UNL     H4   28  -0.467   0.028   0.119
    1UNL     H5   29  -0.527   0.138  -0.009
    1UNL     H6   30  -0.304   0.207   0.026
    1UNL     H7   31  -0.262  -0.018   0.175
    1UNL     H8   32  -0.111  -0.183   0.071
    1UNL     H9   33  -0.237  -0.145  -0.060
    1UNL    H10   34  -0.049  -0.100  -0.195
    1UNL    H11   35   0.084  -0.170   0.027
    1UNL    H12   36   0.135  -0.120  -0.306
    1UNL    H13   37   0.209  -0.261  -0.221
    1UNL    H14   38   0.322  -0.140  -0.294
    1UNL    H15   39   0.481  -0.168  -0.123
    1UNL    H16   40   0.635  -0.166   0.066
    1UNL    H17   41   0.568  -0.059   0.263
    1UNL    H18   42   0.332   0.041   0.291
    1UNL    H19   43   0.176   0.232   0.074
    1UNL    H20   44   0.170   0.153  -0.085
    1UNL    H21   45  -0.063   0.277   0.005
    1UNL    H22   46  -0.121   0.183   0.202
    1UNL    H23   47   0.009  -0.075   0.224
    1UNL    H24   48   0.101   0.182   0.286
    1UNL    H25   49  -0.250   0.209  -0.196
    1UNL    H26   50  -0.211  -0.003  -0.308
   0.00000   0.00000   0.00000   0.00000   0.00000   0.00000   0.00000   0.00000   0.00000
Generated with MDTraj, t= 70.0
 50
    1UNL     C1    1  -0.454  -0.102  -0.051
    1UNL     C2    2  -0.458   0.048  -0.016
    1UNL     C3    3  -0.310   0.104  -0.003
    1UNL     C4    4  -0.215   0.022   0.090
    1UNL     C5    5  -0.160  -0.101   0.008
    1UNL     C6    6  -0.059  -0.052  -0.089
    1UNL     C7    7   0.082  -0.094  -0.033
    1UNL     N1    8   0.210  -0.108  -0.112
    1UNL     C8    9   0.220  -0.137  -0.250
    1UNL     C9   10   0.321  -0.087  -0.023
    1UNL    C10   11   0.453  -0.134  -0.023
    1UNL    C11   12   0.538  -0.118   0.080
    1UNL    C12   13   0.495  -0.050   0.194
    1UNL    C13   14   0.369   0.006   0.200
    1UNL    C14   15   0.281  -0.014   0.089
    1UNL    C15   16   0.133   0.017   0.069
    1UNL    C16   17   0.113   0.153   0.012
    1UNL    C17   18  -0.031   0.168   0.005
    1UNL    C18   19  -0.089   0.105   0.141
    1UNL    C19   20   0.039   0.025   0.194
    1UNL     O1   21   0.106   0.087   0.299
    1UNL     N2   22  -0.079   0.094  -0.117
    1UNL    C20   23  -0.233   0.122  -0.138
    1UNL     O2   24  -0.283   0.046  -0.242
    1UNL     H1   25  -0.552  -0.132  -0.085
    1UNL     H2   26  -0.399  -0.113  -0.140
    1UNL     H3   27  -0.420  -0.169   0.024
    1UNL     H4   28  -0.512   0.054   0.085
    1UNL     H5   29  -0.520   0.110  -0.088
    1UNL     H6   30  -0.318   0.211   0.033
    1UNL     H7   31  -0.268  -0.007   0.177
    1UNL     H8   32  -0.103  -0.169   0.076
    1UNL     H9   33  -0.237  -0.155  -0.045
    1UNL    H10   34  -0.062  -0.112  -0.183
    1UNL    H11   35   0.069  -0.193   0.016
    1UNL    H12   36   0.195  -0.039  -0.302
    1UNL    H13   37   0.143  -0.205  -0.279
    1UNL    H14   38   0.325  -0.174  -0.280
    1UNL    H15   39   0.491  -0.179  -0.118
    1UNL    H16   40   0.643  -0.164   0.063
    1UNL    H17   41   0.570  -0.035   0.273
    1UNL    H18   42   0.343   0.080   0.283
    1UNL    H19   43   0.165   0.226   0.076
    1UNL    H20   44   0.155   0.169  -0.085
    1UNL    H21   45  -0.067   0.269   0.002
    1UNL    H22   46  -0.110   0.186   0.218
    1UNL    H23   47   0.009  -0.074   0.225
    1UNL    H24   48   0.106   0.182   0.290
    1UNL    H25   49  -0.235   0.224  -0.177
    1UNL    H26   50  -0.213   0.009  -0.300
   0.00000   0.00000   0.00000   0.00000   0.00000   0.00000   0.00000   0.00000   0.00000
Generated with MDTraj, t= 71.0
 50
    1UNL     C1    1  -0.472  -0.086  -0.056
    1UNL     C2    2  -0.446   0.061  -0.018
    1UNL     C3    3  -0.299   0.102  -0.008
    1UNL     C4    4  -0.215   0.014   0.095
    1UNL     C5    5  -0.164  -0.106   0.009
    1UNL     C6    6  -0.051  -0.062  -0.087
    1UNL     C7    7   0.086  -0.095  -0.021
    1UNL     N1    8   0.212  -0.121  -0.103
    1UNL     C8    9   0.206  -0.129  -0.246
    1UNL     C9   10   0.324  -0.097  -0.020
    1UNL    C10   11   0.457  -0.121  -0.048
    1UNL    C11   12   0.548  -0.094   0.055
    1UNL    C12   13   0.507  -0.029   0.174
    1UNL    C13   14   0.378  -0.001   0.199
    1UNL    C14   15   0.283  -0.038   0.106
    1UNL    C15   16   0.138   0.009   0.085
    1UNL    C16   17   0.121   0.144   0.020
    1UNL    C17   18  -0.026   0.165  -0.002
    1UNL    C18   19  -0.094   0.105   0.126
    1UNL    C19   20   0.025   0.028   0.200
    1UNL     O1   21   0.068   0.091   0.317
    1UNL     N2   22  -0.075   0.087  -0.113
    1UNL    C20   23  -0.224   0.125  -0.139
    1UNL     O2   24  -0.279   0.039  -0.243
    1UNL     H1   25  -0.571  -0.088  -0.089
    1UNL     H2   26  -0.418  -0.122  -0.141
    1UNL     H3   27  -0.460  -0.159   0.021
    1UNL     H4   28  -0.507   0.098   0.071
    1UNL     H5   29  -0.494   0.116  -0.107
    1UNL     H6   30  -0.304   0.199   0.047
    1UNL     H7   31  -0.270  -0.011   0.186
    1UNL     H8   32  -0.138  -0.188   0.080
    1UNL     H9   33  -0.242  -0.150  -0.052
    1UNL    H10   34  -0.056  -0.123  -0.181
    1UNL    H11   35   0.075  -0.186   0.043
    1UNL    H12   36   0.231  -0.023  -0.285
    1UNL    H13   37   0.108  -0.146  -0.288
    1UNL    H14   38   0.284  -0.200  -0.284
    1UNL    H15   39   0.490  -0.169  -0.137
    1UNL    H16   40   0.641  -0.136   0.058
    1UNL    H17   41   0.587  -0.013   0.245
    1UNL    H18   42   0.355   0.065   0.277
    1UNL    H19   43   0.168   0.227   0.077
    1UNL    H20   44   0.177   0.152  -0.068
    1UNL    H21   45  -0.047   0.270  -0.024
    1UNL    H22   46  -0.126   0.192   0.185
    1UNL    H23   47  -0.006  -0.070   0.227
    1UNL    H24   48   0.060   0.191   0.310
    1UNL    H25   49  -0.228   0.234  -0.163
    1UNL    H26   50  -0.207  -0.001  -0.306
   0.00000   0.00000   0.00000   0.00000   0.00000   0.00000   0.00000   0.00000   0.00000
Generated with MDTraj, t= 72.0
 50
    1UNL     C1    1  -0.508  -0.044  -0.079
    1UNL     C2    2  -0.451   0.087  -0.026
    1UNL     C3    3  -0.294   0.101  -0.014
    1UNL     C4    4  -0.208   0.018   0.098
    1UNL     C5    5  -0.160  -0.111   0.025
    1UNL     C6    6  -0.055  -0.070  -0.080
    1UNL     C7    7   0.083  -0.099  -0.024
    1UNL     N1    8   0.204  -0.123  -0.102
    1UNL     C8    9   0.205  -0.128  -0.244
    1UNL     C9   10   0.320  -0.097  -0.026
    1UNL    C10   11   0.457  -0.107  -0.047
    1UNL    C11   12   0.542  -0.063   0.055
    1UNL    C12   13   0.502  -0.013   0.173
    1UNL    C13   14   0.367   0.005   0.191
    1UNL    C14   15   0.278  -0.037   0.092
    1UNL    C15   16   0.132   0.003   0.078
    1UNL    C16   17   0.131   0.149   0.019
    1UNL    C17   18  -0.025   0.160   0.008
    1UNL    C18   19  -0.089   0.103   0.141
    1UNL    C19   20   0.030   0.017   0.201
    1UNL     O1   21   0.085   0.066   0.319
    1UNL     N2   22  -0.072   0.076  -0.112
    1UNL    C20   23  -0.213   0.099  -0.137
    1UNL     O2   24  -0.262   0.010  -0.238
    1UNL     H1   25  -0.603  -0.025  -0.107
    1UNL     H2   26  -0.460  -0.088  -0.165
    1UNL     H3   27  -0.513  -0.120  -0.001
    1UNL     H4   28  -0.507   0.111   0.072
    1UNL     H5   29  -0.488   0.174  -0.091
    1UNL     H6   30  -0.291   0.205   0.027
    1UNL     H7   31  -0.279  -0.015   0.178
    1UNL     H8   32  -0.122  -0.190   0.093
    1UNL     H9   33  -0.247  -0.163  -0.017
    1UNL    H10   34  -0.066  -0.125  -0.176
    1UNL    H11   35   0.082  -0.194   0.034
    1UNL    H12   36   0.200  -0.025  -0.292
    1UNL    H13   37   0.112  -0.173  -0.287
    1UNL    H14   38   0.296  -0.181  -0.278
    1UNL    H15   39   0.500  -0.169  -0.122
    1UNL    H16   40   0.653  -0.080   0.050
    1UNL    H17   41   0.562   0.014   0.256
    1UNL    H18   42   0.327   0.060   0.274
    1UNL    H19   43   0.194   0.220   0.077
    1UNL    H20   44   0.188   0.149  -0.070
    1UNL    H21   45  -0.052   0.265  -0.012
    1UNL    H22   46  -0.124   0.171   0.216
    1UNL    H23   47  -0.007  -0.080   0.230
    1UNL    H24   48   0.093   0.170   0.318
    1UNL    H25   49  -0.209   0.206  -0.174
    1UNL    H26   50  -0.186  -0.021  -0.288
   0.00000   0.00000   0.00000   0.00000   0.00000   0.00000   0.00000   0.00000   0.00000
Generated with MDTraj, t= 73.0
 50
    1UNL     C1    1  -0.498  -0.056  -0.059
    1UNL     C2    2  -0.448   0.083  -0.012
    1UNL     C3    3  -0.294   0.105  -0.011
    1UNL     C4    4  -0.214   0.017   0.086
    1UNL     C5    5  -0.163  -0.111   0.009
    1UNL     C6    6  -0.045  -0.068  -0.087
    1UNL     C7    7   0.093  -0.104  -0.018
    1UNL     N1    8   0.212  -0.136  -0.095
    1UNL     C8    9   0.221  -0.132  -0.242
    1UNL     C9   10   0.318  -0.100  -0.011
    1UNL    C10   11   0.451  -0.113  -0.044
    1UNL    C11   12   0.541  -0.066   0.049
    1UNL    C12   13   0.510  -0.012   0.169
    1UNL    C13   14   0.374   0.006   0.198
    1UNL    C14   15   0.278  -0.034   0.107
    1UNL    C15   16   0.134  -0.001   0.084
    1UNL    C16   17   0.126   0.145   0.016
    1UNL    C17   18  -0.030   0.158   0.002
    1UNL    C18   19  -0.087   0.097   0.133
    1UNL    C19   20   0.028   0.013   0.202
    1UNL     O1   21   0.072   0.076   0.318
    1UNL     N2   22  -0.076   0.080  -0.118
    1UNL    C20   23  -0.215   0.119  -0.148
    1UNL     O2   24  -0.281   0.029  -0.246
    1UNL     H1   25  -0.599  -0.058  -0.043
    1UNL     H2   26  -0.488  -0.079  -0.163
    1UNL     H3   27  -0.453  -0.133   0.003
    1UNL     H4   28  -0.498   0.105   0.090
    1UNL     H5   29  -0.498   0.168  -0.070
    1UNL     H6   30  -0.287   0.203   0.044
    1UNL     H7   31  -0.274  -0.011   0.179
    1UNL     H8   32  -0.132  -0.191   0.079
    1UNL     H9   33  -0.249  -0.165  -0.039
    1UNL    H10   34  -0.053  -0.119  -0.185
    1UNL    H11   35   0.080  -0.205   0.028
    1UNL    H12   36   0.143  -0.071  -0.295
    1UNL    H13   37   0.192  -0.235  -0.288
    1UNL    H14   38   0.322  -0.108  -0.276
    1UNL    H15   39   0.495  -0.164  -0.134
    1UNL    H16   40   0.641  -0.065   0.012
    1UNL    H17   41   0.584   0.050   0.227
    1UNL    H18   42   0.337   0.055   0.293
    1UNL    H19   43   0.178   0.220   0.077
    1UNL    H20   44   0.170   0.146  -0.079
    1UNL    H21   45  -0.061   0.261  -0.029
    1UNL    H22   46  -0.112   0.169   0.205
    1UNL    H23   47  -0.010  -0.084   0.227
    1UNL    H24   48   0.127   0.161   0.295
    1UNL    H25   49  -0.210   0.225  -0.190
    1UNL    H26   50  -0.214   0.003  -0.308
   0.00000   0.00000   0.00000   0.00000   0.00000   0.00000   0.00000   0.00000   0.00000
Generated with MDTraj, t= 74.0
 50
    1UNL     C1    1  -0.456  -0.087  -0.050
    1UNL     C2    2  -0.445   0.068  -0.032
    1UNL     C3    3  -0.299   0.105  -0.007
    1UNL     C4    4  -0.216   0.015   0.088
    1UNL     C5    5  -0.160  -0.109   0.018
    1UNL     C6    6  -0.054  -0.058  -0.085
    1UNL     C7    7   0.084  -0.096  -0.025
    1UNL     N1    8   0.211  -0.120  -0.105
    1UNL     C8    9   0.213  -0.142  -0.249
    1UNL     C9   10   0.319  -0.088  -0.021
    1UNL    C10   11   0.449  -0.131  -0.037
    1UNL    C11   12   0.541  -0.099   0.067
    1UNL    C12   13   0.499  -0.026   0.179
    1UNL    C13   14   0.366   0.013   0.190
    1UNL    C14   15   0.275  -0.018   0.095
    1UNL    C15   16   0.128   0.008   0.076
    1UNL    C16   17   0.121   0.150   0.017
    1UNL    C17   18  -0.030   0.170   0.008
    1UNL    C18   19  -0.095   0.100   0.140
    1UNL    C19   20   0.027   0.017   0.201
    1UNL     O1   21   0.090   0.078   0.310
    1UNL     N2   22  -0.075   0.091  -0.114
    1UNL    C20   23  -0.215   0.126  -0.141
    1UNL     O2   24  -0.282   0.038  -0.240
    1UNL     H1   25  -0.557  -0.113  -0.047
    1UNL     H2   26  -0.422  -0.129  -0.143
    1UNL     H3   27  -0.409  -0.139   0.031
    1UNL     H4   28  -0.511   0.114   0.050
    1UNL     H5   29  -0.491   0.127  -0.119
    1UNL     H6   30  -0.299   0.205   0.045
    1UNL     H7   31  -0.290  -0.010   0.174
    1UNL     H8   32  -0.138  -0.189   0.091
    1UNL     H9   33  -0.244  -0.147  -0.046
    1UNL    H10   34  -0.074  -0.104  -0.184
    1UNL    H11   35   0.059  -0.188   0.030
    1UNL    H12   36   0.116  -0.173  -0.290
    1UNL    H13   37   0.273  -0.240  -0.275
    1UNL    H14   38   0.263  -0.059  -0.303
    1UNL    H15   39   0.480  -0.186  -0.117
    1UNL    H16   40   0.646  -0.116   0.057
    1UNL    H17   41   0.573   0.009   0.240
    1UNL    H18   42   0.340   0.058   0.278
    1UNL    H19   43   0.174   0.227   0.078
    1UNL    H20   44   0.156   0.151  -0.083
    1UNL    H21   45  -0.068   0.277   0.006
    1UNL    H22   46  -0.129   0.170   0.208
    1UNL    H23   47  -0.003  -0.084   0.224
    1UNL    H24   48   0.153   0.148   0.283
    1UNL    H25   49  -0.221   0.225  -0.196
    1UNL    H26   50  -0.217  -0.013  -0.303
   0.00000   0.00000   0.00000   0.00000   0.00000   0.00000   0.00000   0.00000   0.00000
Generated with MDTraj, t= 75.0
 50
    1UNL     C1    1  -0.479  -0.090  -0.083
    1UNL     C2    2  -0.452   0.040  -0.005
    1UNL     C3    3  -0.308   0.094   0.004
    1UNL     C4    4  -0.207   0.017   0.094
    1UNL     C5    5  -0.150  -0.104   0.011
    1UNL     C6    6  -0.051  -0.049  -0.092
    1UNL     C7    7   0.091  -0.081  -0.028
    1UNL     N1    8   0.216  -0.089  -0.115
    1UNL     C8    9   0.210  -0.164  -0.233
    1UNL     C9   10   0.326  -0.076  -0.029
    1UNL    C10   11   0.459  -0.127  -0.036
    1UNL    C11   12   0.546  -0.126   0.066
    1UNL    C12   13   0.498  -0.062   0.183
    1UNL    C13   14   0.370  -0.013   0.197
    1UNL    C14   15   0.282  -0.015   0.091
    1UNL    C15   16   0.136   0.027   0.079
    1UNL    C16   17   0.119   0.162   0.008
    1UNL    C17   18  -0.031   0.177   0.002
    1UNL    C18   19  -0.088   0.115   0.136
    1UNL    C19   20   0.033   0.031   0.200
    1UNL     O1   21   0.082   0.107   0.305
    1UNL     N2   22  -0.082   0.095  -0.118
    1UNL    C20   23  -0.230   0.118  -0.135
    1UNL     O2   24  -0.282   0.030  -0.236
    1UNL     H1   25  -0.583  -0.113  -0.063
    1UNL     H2   26  -0.472  -0.075  -0.189
    1UNL     H3   27  -0.420  -0.171  -0.054
    1UNL     H4   28  -0.493   0.023   0.101
    1UNL     H5   29  -0.524   0.122  -0.033
    1UNL     H6   30  -0.310   0.198   0.047
    1UNL     H7   31  -0.256  -0.012   0.196
    1UNL     H8   32  -0.104  -0.182   0.072
    1UNL     H9   33  -0.238  -0.146  -0.041
    1UNL    H10   34  -0.055  -0.096  -0.192
    1UNL    H11   35   0.080  -0.176   0.025
    1UNL    H12   36   0.173  -0.265  -0.205
    1UNL    H13   37   0.315  -0.179  -0.269
    1UNL    H14   38   0.154  -0.106  -0.314
    1UNL    H15   39   0.483  -0.174  -0.134
    1UNL    H16   40   0.641  -0.179   0.071
    1UNL    H17   41   0.551  -0.068   0.284
    1UNL    H18   42   0.331   0.028   0.294
    1UNL    H19   43   0.159   0.239   0.075
    1UNL    H20   44   0.166   0.153  -0.089
    1UNL    H21   45  -0.051   0.290   0.001
    1UNL    H22   46  -0.103   0.192   0.204
    1UNL    H23   47  -0.008  -0.064   0.232
    1UNL    H24   48   0.019   0.108   0.373
    1UNL    H25   49  -0.236   0.213  -0.191
    1UNL    H26   50  -0.206  -0.006  -0.291
   0.00000   0.00000   0.00000   0.00000   0.00000   0.00000   0.00000   0.00000   0.00000
Generated with MDTraj, t= 76.0
 50
    1UNL     C1    1  -0.496  -0.074  -0.088
    1UNL     C2    2  -0.454   0.050  -0.004
    1UNL     C3    3  -0.308   0.094   0.004
    1UNL     C4    4  -0.206   0.006   0.095
    1UNL     C5    5  -0.155  -0.110   0.012
    1UNL     C6    6  -0.054  -0.052  -0.086
    1UNL     C7    7   0.095  -0.078  -0.037
    1UNL     N1    8   0.218  -0.089  -0.129
    1UNL     C8    9   0.223  -0.202  -0.225
    1UNL     C9   10   0.327  -0.063  -0.039
    1UNL    C10   11   0.463  -0.116  -0.038
    1UNL    C11   12   0.537  -0.117   0.074
    1UNL    C12   13   0.488  -0.063   0.195
    1UNL    C13   14   0.362   0.000   0.201
    1UNL    C14   15   0.284  -0.004   0.084
    1UNL    C15   16   0.138   0.033   0.072
    1UNL    C16   17   0.116   0.164   0.008
    1UNL    C17   18  -0.038   0.174   0.013
    1UNL    C18   19  -0.087   0.101   0.139
    1UNL    C19   20   0.039   0.026   0.194
    1UNL     O1   21   0.101   0.093   0.302
    1UNL     N2   22  -0.088   0.091  -0.108
    1UNL    C20   23  -0.233   0.121  -0.131
    1UNL     O2   24  -0.267   0.035  -0.238
    1UNL     H1   25  -0.605  -0.067  -0.103
    1UNL     H2   26  -0.450  -0.073  -0.180
    1UNL     H3   27  -0.475  -0.164  -0.041
    1UNL     H4   28  -0.493   0.037   0.103
    1UNL     H5   29  -0.513   0.143  -0.030
    1UNL     H6   30  -0.320   0.195   0.054
    1UNL     H7   31  -0.265  -0.036   0.188
    1UNL     H8   32  -0.115  -0.190   0.077
    1UNL     H9   33  -0.232  -0.163  -0.046
    1UNL    H10   34  -0.057  -0.096  -0.187
    1UNL    H11   35   0.096  -0.168   0.025
    1UNL    H12   36   0.302  -0.272  -0.190
    1UNL    H13   37   0.242  -0.161  -0.325
    1UNL    H14   38   0.115  -0.248  -0.225
    1UNL    H15   39   0.501  -0.151  -0.133
    1UNL    H16   40   0.618  -0.188   0.075
    1UNL    H17   41   0.543  -0.090   0.281
    1UNL    H18   42   0.312   0.044   0.286
    1UNL    H19   43   0.149   0.239   0.080
    1UNL    H20   44   0.157   0.155  -0.094
    1UNL    H21   45  -0.069   0.284   0.008
    1UNL    H22   46  -0.113   0.170   0.212
    1UNL    H23   47   0.023  -0.081   0.209
    1UNL    H24   48   0.059   0.176   0.330
    1UNL    H25   49  -0.247   0.219  -0.176
    1UNL    H26   50  -0.192   0.026  -0.294
   0.00000   0.00000   0.00000   0.00000   0.00000   0.00000   0.00000   0.00000   0.00000
Generated with MDTraj, t= 77.0
 50
    1UNL     C1    1  -0.471  -0.088  -0.039
    1UNL     C2    2  -0.453   0.060  -0.008
    1UNL     C3    3  -0.305   0.106  -0.009
    1UNL     C4    4  -0.214   0.016   0.079
    1UNL     C5    5  -0.162  -0.100  -0.004
    1UNL     C6    6  -0.049  -0.041  -0.105
    1UNL     C7    7   0.083  -0.087  -0.036
    1UNL     N1    8   0.211  -0.110  -0.107
    1UNL     C8    9   0.209  -0.197  -0.224
    1UNL     C9   10   0.323  -0.097  -0.019
    1UNL    C10   11   0.456  -0.124  -0.036
    1UNL    C11   12   0.552  -0.084   0.060
    1UNL    C12   13   0.506  -0.016   0.176
    1UNL    C13   14   0.370   0.013   0.198
    1UNL    C14   15   0.282  -0.029   0.099
    1UNL    C15   16   0.133   0.015   0.079
    1UNL    C16   17   0.129   0.152   0.015
    1UNL    C17   18  -0.026   0.167   0.010
    1UNL    C18   19  -0.095   0.100   0.131
    1UNL    C19   20   0.029   0.013   0.191
    1UNL     O1   21   0.068   0.062   0.319
    1UNL     N2   22  -0.069   0.100  -0.117
    1UNL    C20   23  -0.223   0.129  -0.139
    1UNL     O2   24  -0.276   0.052  -0.243
    1UNL     H1   25  -0.573  -0.120  -0.066
    1UNL     H2   26  -0.413  -0.114  -0.120
    1UNL     H3   27  -0.443  -0.151   0.041
    1UNL     H4   28  -0.506   0.096   0.087
    1UNL     H5   29  -0.507   0.120  -0.085
    1UNL     H6   30  -0.316   0.200   0.051
    1UNL     H7   31  -0.274  -0.032   0.168
    1UNL     H8   32  -0.132  -0.187   0.057
    1UNL     H9   33  -0.239  -0.145  -0.065
    1UNL    H10   34  -0.053  -0.090  -0.203
    1UNL    H11   35   0.064  -0.187   0.005
    1UNL    H12   36   0.315  -0.232  -0.243
    1UNL    H13   37   0.171  -0.137  -0.307
    1UNL    H14   38   0.139  -0.287  -0.206
    1UNL    H15   39   0.487  -0.162  -0.129
    1UNL    H16   40   0.659  -0.092   0.037
    1UNL    H17   41   0.586   0.011   0.243
    1UNL    H18   42   0.352   0.078   0.279
    1UNL    H19   43   0.171   0.220   0.088
    1UNL    H20   44   0.167   0.138  -0.089
    1UNL    H21   45  -0.053   0.277   0.007
    1UNL    H22   46  -0.120   0.167   0.208
    1UNL    H23   47   0.005  -0.094   0.196
    1UNL    H24   48   0.038   0.160   0.339
    1UNL    H25   49  -0.236   0.230  -0.172
    1UNL    H26   50  -0.209   0.058  -0.317
   0.00000   0.00000   0.00000   0.00000   0.00000   0.00000   0.00000   0.00000   0.00000
Generated with MDTraj, t= 78.0
 50
    1UNL     C1    1  -0.487  -0.065  -0.039
    1UNL     C2    2  -0.438   0.079  -0.050
    1UNL     C3    3  -0.296   0.108  -0.009
    1UNL     C4    4  -0.219   0.013   0.092
    1UNL     C5    5  -0.172  -0.109   0.006
    1UNL     C6    6  -0.055  -0.058  -0.088
    1UNL     C7    7   0.081  -0.105  -0.019
    1UNL     N1    8   0.205  -0.116  -0.100
    1UNL     C8    9   0.213  -0.189  -0.223
    1UNL     C9   10   0.324  -0.088  -0.019
    1UNL    C10   11   0.453  -0.110  -0.051
    1UNL    C11   12   0.543  -0.064   0.045
    1UNL    C12   13   0.506  -0.002   0.160
    1UNL    C13   14   0.369   0.015   0.189
    1UNL    C14   15   0.279  -0.035   0.104
    1UNL    C15   16   0.136  -0.006   0.084
    1UNL    C16   17   0.123   0.143   0.027
    1UNL    C17   18  -0.033   0.165   0.012
    1UNL    C18   19  -0.097   0.092   0.142
    1UNL    C19   20   0.029   0.005   0.198
    1UNL     O1   21   0.085   0.067   0.316
    1UNL     N2   22  -0.074   0.088  -0.107
    1UNL    C20   23  -0.216   0.127  -0.144
    1UNL     O2   24  -0.260   0.053  -0.256
    1UNL     H1   25  -0.585  -0.092  -0.075
    1UNL     H2   26  -0.417  -0.128  -0.085
    1UNL     H3   27  -0.485  -0.090   0.066
    1UNL     H4   28  -0.513   0.135   0.014
    1UNL     H5   29  -0.460   0.117  -0.153
    1UNL     H6   30  -0.300   0.202   0.050
    1UNL     H7   31  -0.283  -0.032   0.180
    1UNL     H8   32  -0.137  -0.187   0.076
    1UNL     H9   33  -0.245  -0.163  -0.053
    1UNL    H10   34  -0.062  -0.102  -0.188
    1UNL    H11   35   0.072  -0.200   0.037
    1UNL    H12   36   0.305  -0.156  -0.284
    1UNL    H13   37   0.123  -0.150  -0.279
    1UNL    H14   38   0.208  -0.299  -0.210
    1UNL    H15   39   0.486  -0.156  -0.147
    1UNL    H16   40   0.644  -0.060   0.010
    1UNL    H17   41   0.572   0.059   0.226
    1UNL    H18   42   0.336   0.073   0.280
    1UNL    H19   43   0.155   0.206   0.109
    1UNL    H20   44   0.169   0.156  -0.074
    1UNL    H21   45  -0.059   0.275   0.009
    1UNL    H22   46  -0.115   0.168   0.217
    1UNL    H23   47  -0.014  -0.098   0.211
    1UNL    H24   48   0.065   0.010   0.402
    1UNL    H25   49  -0.212   0.229  -0.177
    1UNL    H26   50  -0.186   0.051  -0.328
   0.00000   0.00000   0.00000   0.00000   0.00000   0.00000   0.00000   0.00000   0.00000
Generated with MDTraj, t= 79.0
 50
    1UNL     C1    1  -0.483  -0.042  -0.071
    1UNL     C2    2  -0.440   0.085  -0.008
    1UNL     C3    3  -0.293   0.112  -0.007
    1UNL     C4    4  -0.218   0.014   0.085
    1UNL     C5    5  -0.164  -0.110   0.011
    1UNL     C6    6  -0.051  -0.061  -0.089
    1UNL     C7    7   0.084  -0.096  -0.026
    1UNL     N1    8   0.206  -0.107  -0.105
    1UNL     C8    9   0.222  -0.190  -0.225
    1UNL     C9   10   0.318  -0.075  -0.024
    1UNL    C10   11   0.453  -0.095  -0.051
    1UNL    C11   12   0.550  -0.064   0.049
    1UNL    C12   13   0.511  -0.026   0.171
    1UNL    C13   14   0.377  -0.002   0.196
    1UNL    C14   15   0.277  -0.035   0.103
    1UNL    C15   16   0.133   0.003   0.080
    1UNL    C16   17   0.122   0.150   0.019
    1UNL    C17   18  -0.032   0.164   0.008
    1UNL    C18   19  -0.099   0.100   0.135
    1UNL    C19   20   0.024   0.016   0.198
    1UNL     O1   21   0.076   0.066   0.321
    1UNL     N2   22  -0.073   0.088  -0.116
    1UNL    C20   23  -0.222   0.110  -0.145
    1UNL     O2   24  -0.265   0.015  -0.236
    1UNL     H1   25  -0.583  -0.070  -0.072
    1UNL     H2   26  -0.444  -0.041  -0.173
    1UNL     H3   27  -0.433  -0.124  -0.020
    1UNL     H4   28  -0.481   0.079   0.098
    1UNL     H5   29  -0.492   0.171  -0.058
    1UNL     H6   30  -0.279   0.216   0.027
    1UNL     H7   31  -0.284  -0.018   0.175
    1UNL     H8   32  -0.133  -0.193   0.075
    1UNL     H9   33  -0.245  -0.148  -0.053
    1UNL    H10   34  -0.065  -0.117  -0.182
    1UNL    H11   35   0.084  -0.198   0.018
    1UNL    H12   36   0.256  -0.125  -0.314
    1UNL    H13   37   0.118  -0.226  -0.263
    1UNL    H14   38   0.290  -0.275  -0.220
    1UNL    H15   39   0.469  -0.148  -0.141
    1UNL    H16   40   0.659  -0.076   0.028
    1UNL    H17   41   0.580  -0.006   0.247
    1UNL    H18   42   0.350   0.031   0.290
    1UNL    H19   43   0.161   0.230   0.080
    1UNL    H20   44   0.153   0.150  -0.089
    1UNL    H21   45  -0.064   0.271  -0.001
    1UNL    H22   46  -0.137   0.169   0.212
    1UNL    H23   47  -0.030  -0.082   0.207
    1UNL    H24   48   0.004   0.094   0.382
    1UNL    H25   49  -0.229   0.205  -0.198
    1UNL    H26   50  -0.233   0.024  -0.324
   0.00000   0.00000   0.00000   0.00000   0.00000   0.00000   0.00000   0.00000   0.00000
Generated with MDTraj, t= 80.0
 50
    1UNL     C1    1  -0.501  -0.063  -0.080
    1UNL     C2    2  -0.462   0.062  -0.008
    1UNL     C3    3  -0.305   0.100   0.004
    1UNL     C4    4  -0.218   0.002   0.094
    1UNL     C5    5  -0.152  -0.105   0.007
    1UNL     C6    6  -0.048  -0.056  -0.094
    1UNL     C7    7   0.096  -0.082  -0.037
    1UNL     N1    8   0.222  -0.102  -0.108
    1UNL     C8    9   0.220  -0.190  -0.227
    1UNL     C9   10   0.330  -0.075  -0.023
    1UNL    C10   11   0.462  -0.118  -0.036
    1UNL    C11   12   0.550  -0.099   0.065
    1UNL    C12   13   0.502  -0.041   0.190
    1UNL    C13   14   0.374  -0.004   0.196
    1UNL    C14   15   0.284  -0.015   0.093
    1UNL    C15   16   0.133   0.021   0.071
    1UNL    C16   17   0.112   0.159   0.008
    1UNL    C17   18  -0.036   0.163   0.010
    1UNL    C18   19  -0.093   0.094   0.142
    1UNL    C19   20   0.034   0.017   0.197
    1UNL     O1   21   0.093   0.087   0.302
    1UNL     N2   22  -0.083   0.092  -0.109
    1UNL    C20   23  -0.234   0.121  -0.132
    1UNL     O2   24  -0.276   0.041  -0.240
    1UNL     H1   25  -0.600  -0.088  -0.088
    1UNL     H2   26  -0.453  -0.064  -0.182
    1UNL     H3   27  -0.458  -0.149  -0.029
    1UNL     H4   28  -0.507   0.072   0.093
    1UNL     H5   29  -0.506   0.142  -0.074
    1UNL     H6   30  -0.305   0.199   0.047
    1UNL     H7   31  -0.280  -0.038   0.179
    1UNL     H8   32  -0.092  -0.167   0.074
    1UNL     H9   33  -0.230  -0.167  -0.038
    1UNL    H10   34  -0.065  -0.103  -0.191
    1UNL    H11   35   0.094  -0.180   0.017
    1UNL    H12   36   0.220  -0.137  -0.326
    1UNL    H13   37   0.118  -0.245  -0.236
    1UNL    H14   38   0.298  -0.267  -0.239
    1UNL    H15   39   0.498  -0.177  -0.121
    1UNL    H16   40   0.647  -0.131   0.061
    1UNL    H17   41   0.563  -0.058   0.279
    1UNL    H18   42   0.333   0.037   0.290
    1UNL    H19   43   0.149   0.245   0.062
    1UNL    H20   44   0.143   0.165  -0.102
    1UNL    H21   45  -0.061   0.269  -0.011
    1UNL    H22   46  -0.119   0.172   0.217
    1UNL    H23   47   0.016  -0.093   0.220
    1UNL    H24   48   0.112   0.177   0.288
    1UNL    H25   49  -0.240   0.227  -0.165
    1UNL    H26   50  -0.229   0.057  -0.326
   0.00000   0.00000   0.00000   0.00000   0.00000   0.00000   0.00000   0.00000   0.00000
Generated with MDTraj, t= 81.0
 50
    1UNL     C1    1  -0.453  -0.113  -0.061
    1UNL     C2    2  -0.444   0.028  -0.016
    1UNL     C3    3  -0.302   0.098   0.004
    1UNL     C4    4  -0.204   0.011   0.095
    1UNL     C5    5  -0.147  -0.103   0.010
    1UNL     C6    6  -0.050  -0.044  -0.089
    1UNL     C7    7   0.091  -0.082  -0.036
    1UNL     N1    8   0.212  -0.099  -0.118
    1UNL     C8    9   0.200  -0.184  -0.232
    1UNL     C9   10   0.319  -0.088  -0.028
    1UNL    C10   11   0.450  -0.143  -0.028
    1UNL    C11   12   0.536  -0.118   0.075
    1UNL    C12   13   0.493  -0.042   0.184
    1UNL    C13   14   0.363   0.002   0.197
    1UNL    C14   15   0.278  -0.017   0.089
    1UNL    C15   16   0.134   0.024   0.072
    1UNL    C16   17   0.125   0.164   0.005
    1UNL    C17   18  -0.024   0.183   0.004
    1UNL    C18   19  -0.088   0.109   0.130
    1UNL    C19   20   0.031   0.027   0.190
    1UNL     O1   21   0.081   0.094   0.304
    1UNL     N2   22  -0.085   0.116  -0.110
    1UNL    C20   23  -0.236   0.130  -0.128
    1UNL     O2   24  -0.273   0.060  -0.240
    1UNL     H1   25  -0.554  -0.144  -0.062
    1UNL     H2   26  -0.404  -0.125  -0.160
    1UNL     H3   27  -0.408  -0.177   0.015
    1UNL     H4   28  -0.498   0.034   0.081
    1UNL     H5   29  -0.504   0.086  -0.092
    1UNL     H6   30  -0.322   0.196   0.048
    1UNL     H7   31  -0.256  -0.026   0.184
    1UNL     H8   32  -0.103  -0.179   0.074
    1UNL     H9   33  -0.227  -0.151  -0.048
    1UNL    H10   34  -0.065  -0.085  -0.189
    1UNL    H11   35   0.078  -0.186   0.004
    1UNL    H12   36   0.238  -0.142  -0.330
    1UNL    H13   37   0.094  -0.215  -0.256
    1UNL    H14   38   0.266  -0.275  -0.210
    1UNL    H15   39   0.500  -0.171  -0.119
    1UNL    H16   40   0.644  -0.161   0.084
    1UNL    H17   41   0.558  -0.026   0.269
    1UNL    H18   42   0.311   0.057   0.279
    1UNL    H19   43   0.183   0.240   0.059
    1UNL    H20   44   0.168   0.166  -0.100
    1UNL    H21   45  -0.045   0.289  -0.001
    1UNL    H22   46  -0.125   0.187   0.204
    1UNL    H23   47  -0.013  -0.077   0.208
    1UNL    H24   48   0.048   0.054   0.387
    1UNL    H25   49  -0.258   0.239  -0.149
    1UNL    H26   50  -0.228   0.106  -0.321
   0.00000   0.00000   0.00000   0.00000   0.00000   0.00000   0.00000   0.00000   0.00000
Generated with MDTraj, t= 82.0
 50
    1UNL     C1    1  -0.471  -0.083  -0.062
    1UNL     C2    2  -0.452   0.057  -0.023
    1UNL     C3    3  -0.299   0.098   0.002
    1UNL     C4    4  -0.213   0.008   0.095
    1UNL     C5    5  -0.161  -0.104   0.002
    1UNL     C6    6  -0.053  -0.053  -0.093
    1UNL     C7    7   0.086  -0.081  -0.032
    1UNL     N1    8   0.214  -0.083  -0.120
    1UNL     C8    9   0.225  -0.189  -0.220
    1UNL     C9   10   0.320  -0.064  -0.032
    1UNL    C10   11   0.448  -0.122  -0.042
    1UNL    C11   12   0.537  -0.124   0.067
    1UNL    C12   13   0.501  -0.053   0.177
    1UNL    C13   14   0.372   0.002   0.196
    1UNL    C14   15   0.282  -0.003   0.090
    1UNL    C15   16   0.134   0.023   0.071
    1UNL    C16   17   0.121   0.163   0.009
    1UNL    C17   18  -0.032   0.177   0.012
    1UNL    C18   19  -0.095   0.098   0.139
    1UNL    C19   20   0.033   0.021   0.195
    1UNL     O1   21   0.077   0.084   0.314
    1UNL     N2   22  -0.077   0.097  -0.107
    1UNL    C20   23  -0.224   0.114  -0.135
    1UNL     O2   24  -0.274   0.033  -0.234
    1UNL     H1   25  -0.578  -0.105  -0.079
    1UNL     H2   26  -0.418  -0.108  -0.152
    1UNL     H3   27  -0.443  -0.149   0.021
    1UNL     H4   28  -0.519   0.074   0.063
    1UNL     H5   29  -0.495   0.124  -0.103
    1UNL     H6   30  -0.306   0.196   0.052
    1UNL     H7   31  -0.263  -0.030   0.181
    1UNL     H8   32  -0.120  -0.181   0.065
    1UNL     H9   33  -0.245  -0.157  -0.042
    1UNL    H10   34  -0.057  -0.109  -0.187
    1UNL    H11   35   0.072  -0.181   0.014
    1UNL    H12   36   0.328  -0.194  -0.268
    1UNL    H13   37   0.151  -0.171  -0.299
    1UNL    H14   38   0.213  -0.288  -0.160
    1UNL    H15   39   0.490  -0.142  -0.140
    1UNL    H16   40   0.629  -0.166   0.061
    1UNL    H17   41   0.562  -0.037   0.264
    1UNL    H18   42   0.335   0.041   0.282
    1UNL    H19   43   0.172   0.248   0.057
    1UNL    H20   44   0.172   0.159  -0.091
    1UNL    H21   45  -0.080   0.273   0.006
    1UNL    H22   46  -0.122   0.171   0.223
    1UNL    H23   47   0.014  -0.090   0.219
    1UNL    H24   48   0.147   0.158   0.287
    1UNL    H25   49  -0.250   0.218  -0.166
    1UNL    H26   50  -0.226   0.055  -0.314
   0.00000   0.00000   0.00000   0.00000   0.00000   0.00000   0.00000   0.00000   0.00000
Generated with MDTraj, t= 83.0
 50
    1UNL     C1    1  -0.506  -0.049  -0.078
    1UNL     C2    2  -0.451   0.075  -0.003
    1UNL     C3    3  -0.300   0.101  -0.002
    1UNL     C4    4  -0.212   0.015   0.089
    1UNL     C5    5  -0.163  -0.108   0.004
    1UNL     C6    6  -0.050  -0.061  -0.093
    1UNL     C7    7   0.088  -0.091  -0.026
    1UNL     N1    8   0.211  -0.100  -0.106
    1UNL     C8    9   0.221  -0.178  -0.231
    1UNL     C9   10   0.325  -0.079  -0.019
    1UNL    C10   11   0.456  -0.097  -0.049
    1UNL    C11   12   0.547  -0.074   0.054
    1UNL    C12   13   0.501  -0.039   0.183
    1UNL    C13   14   0.368  -0.007   0.208
    1UNL    C14   15   0.286  -0.027   0.105
    1UNL    C15   16   0.139   0.009   0.079
    1UNL    C16   17   0.121   0.149   0.009
    1UNL    C17   18  -0.031   0.159  -0.000
    1UNL    C18   19  -0.087   0.095   0.132
    1UNL    C19   20   0.039   0.018   0.198
    1UNL     O1   21   0.092   0.076   0.317
    1UNL     N2   22  -0.080   0.089  -0.118
    1UNL    C20   23  -0.229   0.114  -0.147
    1UNL     O2   24  -0.276   0.019  -0.233
    1UNL     H1   25  -0.610  -0.082  -0.044
    1UNL     H2   26  -0.514  -0.034  -0.182
    1UNL     H3   27  -0.447  -0.138  -0.063
    1UNL     H4   28  -0.491   0.073   0.100
    1UNL     H5   29  -0.506   0.166  -0.041
    1UNL     H6   30  -0.285   0.202   0.046
    1UNL     H7   31  -0.270  -0.015   0.169
    1UNL     H8   32  -0.141  -0.178   0.083
    1UNL     H9   33  -0.237  -0.166  -0.051
    1UNL    H10   34  -0.049  -0.115  -0.188
    1UNL    H11   35   0.071  -0.190   0.020
    1UNL    H12   36   0.325  -0.163  -0.278
    1UNL    H13   37   0.146  -0.134  -0.298
    1UNL    H14   38   0.206  -0.290  -0.206
    1UNL    H15   39   0.490  -0.148  -0.139
    1UNL    H16   40   0.655  -0.083   0.027
    1UNL    H17   41   0.573  -0.039   0.265
    1UNL    H18   42   0.336   0.031   0.312
    1UNL    H19   43   0.166   0.243   0.054
    1UNL    H20   44   0.176   0.152  -0.088
    1UNL    H21   45  -0.078   0.255  -0.006
    1UNL    H22   46  -0.111   0.186   0.199
    1UNL    H23   47   0.004  -0.089   0.219
    1UNL    H24   48   0.056   0.174   0.324
    1UNL    H25   49  -0.253   0.214  -0.189
    1UNL    H26   50  -0.201   0.004  -0.293
   0.00000   0.00000   0.00000   0.00000   0.00000   0.00000   0.00000   0.00000   0.00000
Generated with MDTraj, t= 84.0
 50
    1UNL     C1    1  -0.488  -0.055  -0.078
    1UNL     C2    2  -0.451   0.081  -0.019
    1UNL     C3    3  -0.303   0.102   0.000
    1UNL     C4    4  -0.216   0.009   0.091
    1UNL     C5    5  -0.163  -0.114   0.010
    1UNL     C6    6  -0.057  -0.070  -0.083
    1UNL     C7    7   0.076  -0.101  -0.023
    1UNL     N1    8   0.205  -0.124  -0.099
    1UNL     C8    9   0.214  -0.172  -0.243
    1UNL     C9   10   0.322  -0.095  -0.020
    1UNL    C10   11   0.460  -0.112  -0.041
    1UNL    C11   12   0.547  -0.062   0.051
    1UNL    C12   13   0.507  -0.003   0.172
    1UNL    C13   14   0.369   0.015   0.191
    1UNL    C14   15   0.280  -0.040   0.100
    1UNL    C15   16   0.135   0.009   0.080
    1UNL    C16   17   0.123   0.144   0.010
    1UNL    C17   18  -0.033   0.161   0.008
    1UNL    C18   19  -0.095   0.100   0.137
    1UNL    C19   20   0.035   0.018   0.198
    1UNL     O1   21   0.089   0.064   0.320
    1UNL     N2   22  -0.076   0.082  -0.110
    1UNL    C20   23  -0.215   0.119  -0.137
    1UNL     O2   24  -0.269   0.046  -0.241
    1UNL     H1   25  -0.597  -0.058  -0.114
    1UNL     H2   26  -0.429  -0.079  -0.162
    1UNL     H3   27  -0.479  -0.133  -0.004
    1UNL     H4   28  -0.508   0.099   0.074
    1UNL     H5   29  -0.497   0.161  -0.082
    1UNL     H6   30  -0.291   0.203   0.049
    1UNL     H7   31  -0.275  -0.027   0.167
    1UNL     H8   32  -0.136  -0.194   0.077
    1UNL     H9   33  -0.250  -0.147  -0.046
    1UNL    H10   34  -0.060  -0.129  -0.176
    1UNL    H11   35   0.068  -0.198   0.029
    1UNL    H12   36   0.292  -0.107  -0.295
    1UNL    H13   37   0.117  -0.146  -0.292
    1UNL    H14   38   0.242  -0.282  -0.247
    1UNL    H15   39   0.481  -0.189  -0.112
    1UNL    H16   40   0.656  -0.078   0.040
    1UNL    H17   41   0.590   0.037   0.229
    1UNL    H18   42   0.333   0.073   0.275
    1UNL    H19   43   0.185   0.220   0.068
    1UNL    H20   44   0.172   0.150  -0.088
    1UNL    H21   45  -0.056   0.263  -0.006
    1UNL    H22   46  -0.119   0.176   0.221
    1UNL    H23   47  -0.008  -0.086   0.222
    1UNL    H24   48   0.086   0.159   0.343
    1UNL    H25   49  -0.216   0.225  -0.167
    1UNL    H26   50  -0.187   0.009  -0.297
   0.00000   0.00000   0.00000   0.00000   0.00000   0.00000   0.00000   0.00000   0.00000
Generated with MDTraj, t= 85.0
 50
    1UNL     C1    1  -0.463  -0.086  -0.056
    1UNL     C2    2  -0.449   0.063  -0.030
    1UNL     C3    3  -0.304   0.104  -0.004
    1UNL     C4    4  -0.218   0.012   0.096
    1UNL     C5    5  -0.159  -0.106   0.004
    1UNL     C6    6  -0.048  -0.054  -0.089
    1UNL     C7    7   0.088  -0.097  -0.025
    1UNL     N1    8   0.207  -0.120  -0.101
    1UNL     C8    9   0.214  -0.175  -0.237
    1UNL     C9   10   0.321  -0.104  -0.020
    1UNL    C10   11   0.456  -0.135  -0.044
    1UNL    C11   12   0.545  -0.083   0.040
    1UNL    C12   13   0.505  -0.009   0.153
    1UNL    C13   14   0.375   0.010   0.187
    1UNL    C14   15   0.280  -0.039   0.098
    1UNL    C15   16   0.131   0.009   0.089
    1UNL    C16   17   0.118   0.150   0.026
    1UNL    C17   18  -0.031   0.170   0.016
    1UNL    C18   19  -0.095   0.107   0.138
    1UNL    C19   20   0.020   0.022   0.201
    1UNL     O1   21   0.059   0.083   0.322
    1UNL     N2   22  -0.073   0.099  -0.109
    1UNL    C20   23  -0.215   0.128  -0.133
    1UNL     O2   24  -0.259   0.053  -0.249
    1UNL     H1   25  -0.573  -0.106  -0.078
    1UNL     H2   26  -0.404  -0.126  -0.137
    1UNL     H3   27  -0.439  -0.138   0.034
    1UNL     H4   28  -0.509   0.096   0.057
    1UNL     H5   29  -0.487   0.128  -0.112
    1UNL     H6   30  -0.318   0.210   0.036
    1UNL     H7   31  -0.270  -0.015   0.181
    1UNL     H8   32  -0.127  -0.181   0.074
    1UNL     H9   33  -0.241  -0.142  -0.055
    1UNL    H10   34  -0.055  -0.109  -0.184
    1UNL    H11   35   0.092  -0.185   0.039
    1UNL    H12   36   0.235  -0.084  -0.302
    1UNL    H13   37   0.112  -0.217  -0.275
    1UNL    H14   38   0.294  -0.252  -0.243
    1UNL    H15   39   0.469  -0.202  -0.131
    1UNL    H16   40   0.643  -0.097   0.009
    1UNL    H17   41   0.574   0.050   0.211
    1UNL    H18   42   0.346   0.075   0.263
    1UNL    H19   43   0.162   0.230   0.096
    1UNL    H20   44   0.173   0.158  -0.068
    1UNL    H21   45  -0.057   0.273   0.005
    1UNL    H22   46  -0.123   0.195   0.210
    1UNL    H23   47  -0.018  -0.085   0.213
    1UNL    H24   48   0.044   0.031   0.397
    1UNL    H25   49  -0.212   0.234  -0.156
    1UNL    H26   50  -0.183   0.016  -0.298
   0.00000   0.00000   0.00000   0.00000   0.00000   0.00000   0.00000   0.00000   0.00000
Generated with MDTraj, t= 86.0
 50
    1UNL     C1    1  -0.474  -0.074  -0.083
    1UNL     C2    2  -0.454   0.067  -0.014
    1UNL     C3    3  -0.302   0.100  -0.004
    1UNL     C4    4  -0.214   0.010   0.089
    1UNL     C5    5  -0.155  -0.112   0.017
    1UNL     C6    6  -0.058  -0.053  -0.086
    1UNL     C7    7   0.091  -0.084  -0.030
    1UNL     N1    8   0.212  -0.104  -0.116
    1UNL     C8    9   0.202  -0.188  -0.226
    1UNL     C9   10   0.326  -0.073  -0.030
    1UNL    C10   11   0.460  -0.117  -0.044
    1UNL    C11   12   0.545  -0.093   0.068
    1UNL    C12   13   0.500  -0.046   0.191
    1UNL    C13   14   0.363  -0.009   0.199
    1UNL    C14   15   0.283  -0.003   0.088
    1UNL    C15   16   0.138   0.024   0.074
    1UNL    C16   17   0.116   0.159   0.011
    1UNL    C17   18  -0.035   0.172   0.005
    1UNL    C18   19  -0.090   0.101   0.140
    1UNL    C19   20   0.039   0.020   0.194
    1UNL     O1   21   0.097   0.068   0.313
    1UNL     N2   22  -0.083   0.094  -0.113
    1UNL    C20   23  -0.228   0.123  -0.135
    1UNL     O2   24  -0.279   0.034  -0.238
    1UNL     H1   25  -0.581  -0.086  -0.107
    1UNL     H2   26  -0.414  -0.091  -0.177
    1UNL     H3   27  -0.445  -0.150  -0.013
    1UNL     H4   28  -0.500   0.084   0.086
    1UNL     H5   29  -0.494   0.146  -0.078
    1UNL     H6   30  -0.307   0.204   0.043
    1UNL     H7   31  -0.264  -0.026   0.174
    1UNL     H8   32  -0.105  -0.180   0.084
    1UNL     H9   33  -0.243  -0.159  -0.027
    1UNL    H10   34  -0.056  -0.113  -0.178
    1UNL    H11   35   0.095  -0.178   0.025
    1UNL    H12   36   0.142  -0.136  -0.306
    1UNL    H13   37   0.154  -0.292  -0.208
    1UNL    H14   38   0.303  -0.206  -0.268
    1UNL    H15   39   0.500  -0.145  -0.137
    1UNL    H16   40   0.657  -0.116   0.061
    1UNL    H17   41   0.571  -0.043   0.274
    1UNL    H18   42   0.335   0.033   0.302
    1UNL    H19   43   0.154   0.245   0.078
    1UNL    H20   44   0.161   0.160  -0.089
    1UNL    H21   45  -0.073   0.272   0.002
    1UNL    H22   46  -0.128   0.183   0.213
    1UNL    H23   47   0.005  -0.086   0.216
    1UNL    H24   48   0.070   0.162   0.323
    1UNL    H25   49  -0.228   0.227  -0.168
    1UNL    H26   50  -0.211   0.010  -0.300
   0.00000   0.00000   0.00000   0.00000   0.00000   0.00000   0.00000   0.00000   0.00000
Generated with MDTraj, t= 87.0
 50
    1UNL     C1    1  -0.486  -0.074  -0.064
    1UNL     C2    2  -0.450   0.056   0.006
    1UNL     C3    3  -0.306   0.097   0.001
    1UNL     C4    4  -0.209   0.012   0.087
    1UNL     C5    5  -0.157  -0.108  -0.006
    1UNL     C6    6  -0.048  -0.044  -0.103
    1UNL     C7    7   0.095  -0.076  -0.035
    1UNL     N1    8   0.219  -0.096  -0.114
    1UNL     C8    9   0.230  -0.187  -0.224
    1UNL     C9   10   0.324  -0.073  -0.023
    1UNL    C10   11   0.457  -0.111  -0.041
    1UNL    C11   12   0.545  -0.111   0.072
    1UNL    C12   13   0.502  -0.063   0.192
    1UNL    C13   14   0.366  -0.019   0.206
    1UNL    C14   15   0.278  -0.012   0.103
    1UNL    C15   16   0.133   0.022   0.078
    1UNL    C16   17   0.117   0.163   0.005
    1UNL    C17   18  -0.038   0.173   0.004
    1UNL    C18   19  -0.087   0.094   0.137
    1UNL    C19   20   0.036   0.022   0.192
    1UNL     O1   21   0.088   0.096   0.303
    1UNL     N2   22  -0.083   0.098  -0.116
    1UNL    C20   23  -0.232   0.120  -0.141
    1UNL     O2   24  -0.291   0.034  -0.241
    1UNL     H1   25  -0.591  -0.090  -0.050
    1UNL     H2   26  -0.466  -0.076  -0.177
    1UNL     H3   27  -0.435  -0.161  -0.018
    1UNL     H4   28  -0.479   0.048   0.113
    1UNL     H5   29  -0.515   0.134  -0.036
    1UNL     H6   30  -0.307   0.200   0.047
    1UNL     H7   31  -0.254  -0.029   0.175
    1UNL     H8   32  -0.134  -0.197   0.051
    1UNL     H9   33  -0.244  -0.133  -0.067
    1UNL    H10   34  -0.056  -0.092  -0.202
    1UNL    H11   35   0.077  -0.173   0.011
    1UNL    H12   36   0.134  -0.238  -0.257
    1UNL    H13   37   0.307  -0.265  -0.197
    1UNL    H14   38   0.279  -0.142  -0.317
    1UNL    H15   39   0.502  -0.134  -0.140
    1UNL    H16   40   0.631  -0.165   0.071
    1UNL    H17   41   0.568  -0.063   0.277
    1UNL    H18   42   0.337   0.009   0.300
    1UNL    H19   43   0.178   0.239   0.064
    1UNL    H20   44   0.148   0.151  -0.100
    1UNL    H21   45  -0.076   0.274   0.020
    1UNL    H22   46  -0.118   0.170   0.218
    1UNL    H23   47   0.021  -0.085   0.227
    1UNL    H24   48   0.067   0.198   0.295
    1UNL    H25   49  -0.235   0.224  -0.176
    1UNL    H26   50  -0.230   0.032  -0.325
   0.00000   0.00000   0.00000   0.00000   0.00000   0.00000   0.00000   0.00000   0.00000
Generated with MDTraj, t= 88.0
 50
    1UNL     C1    1  -0.460  -0.096  -0.049
    1UNL     C2    2  -0.440   0.060  -0.026
    1UNL     C3    3  -0.300   0.103  -0.002
    1UNL     C4    4  -0.208   0.021   0.091
    1UNL     C5    5  -0.163  -0.105   0.013
    1UNL     C6    6  -0.060  -0.045  -0.087
    1UNL     C7    7   0.089  -0.083  -0.035
    1UNL     N1    8   0.210  -0.091  -0.117
    1UNL     C8    9   0.219  -0.173  -0.238
    1UNL     C9   10   0.316  -0.085  -0.026
    1UNL    C10   11   0.452  -0.129  -0.033
    1UNL    C11   12   0.533  -0.114   0.074
    1UNL    C12   13   0.492  -0.039   0.182
    1UNL    C13   14   0.367   0.015   0.187
    1UNL    C14   15   0.276  -0.016   0.089
    1UNL    C15   16   0.131   0.014   0.079
    1UNL    C16   17   0.123   0.158   0.012
    1UNL    C17   18  -0.033   0.178   0.011
    1UNL    C18   19  -0.083   0.107   0.139
    1UNL    C19   20   0.028   0.015   0.196
    1UNL     O1   21   0.089   0.066   0.311
    1UNL     N2   22  -0.083   0.096  -0.110
    1UNL    C20   23  -0.222   0.124  -0.142
    1UNL     O2   24  -0.270   0.038  -0.243
    1UNL     H1   25  -0.560  -0.127  -0.058
    1UNL     H2   26  -0.419  -0.136  -0.147
    1UNL     H3   27  -0.424  -0.163   0.036
    1UNL     H4   28  -0.504   0.078   0.063
    1UNL     H5   29  -0.488   0.117  -0.105
    1UNL     H6   30  -0.304   0.199   0.055
    1UNL     H7   31  -0.272  -0.005   0.177
    1UNL     H8   32  -0.125  -0.192   0.066
    1UNL     H9   33  -0.248  -0.148  -0.040
    1UNL    H10   34  -0.074  -0.084  -0.190
    1UNL    H11   35   0.076  -0.184   0.008
    1UNL    H12   36   0.182  -0.276  -0.213
    1UNL    H13   37   0.325  -0.180  -0.272
    1UNL    H14   38   0.160  -0.142  -0.333
    1UNL    H15   39   0.484  -0.197  -0.108
    1UNL    H16   40   0.634  -0.167   0.072
    1UNL    H17   41   0.543  -0.023   0.276
    1UNL    H18   42   0.325   0.075   0.268
    1UNL    H19   43   0.174   0.227   0.083
    1UNL    H20   44   0.171   0.154  -0.089
    1UNL    H21   45  -0.063   0.284  -0.003
    1UNL    H22   46  -0.118   0.175   0.225
    1UNL    H23   47  -0.007  -0.087   0.227
    1UNL    H24   48   0.071   0.169   0.309
    1UNL    H25   49  -0.239   0.228  -0.172
    1UNL    H26   50  -0.228   0.060  -0.329
   0.00000   0.00000   0.00000   0.00000   0.00000   0.00000   0.00000   0.00000   0.00000
Generated with MDTraj, t= 89.0
 50
    1UNL     C1    1  -0.485  -0.075  -0.073
    1UNL     C2    2  -0.456   0.066  -0.023
    1UNL     C3    3  -0.307   0.097  -0.004
    1UNL     C4    4  -0.215   0.011   0.084
    1UNL     C5    5  -0.160  -0.108   0.005
    1UNL     C6    6  -0.053  -0.055  -0.095
    1UNL     C7    7   0.087  -0.091  -0.024
    1UNL     N1    8   0.212  -0.117  -0.095
    1UNL     C8    9   0.198  -0.162  -0.235
    1UNL     C9   10   0.327  -0.091  -0.017
    1UNL    C10   11   0.462  -0.119  -0.046
    1UNL    C11   12   0.553  -0.099   0.055
    1UNL    C12   13   0.510  -0.034   0.175
    1UNL    C13   14   0.382   0.007   0.193
    1UNL    C14   15   0.284  -0.031   0.101
    1UNL    C15   16   0.138   0.012   0.085
    1UNL    C16   17   0.124   0.143   0.017
    1UNL    C17   18  -0.027   0.166   0.009
    1UNL    C18   19  -0.090   0.098   0.129
    1UNL    C19   20   0.028   0.021   0.205
    1UNL     O1   21   0.069   0.095   0.322
    1UNL     N2   22  -0.071   0.093  -0.116
    1UNL    C20   23  -0.223   0.128  -0.136
    1UNL     O2   24  -0.273   0.041  -0.237
    1UNL     H1   25  -0.590  -0.095  -0.085
    1UNL     H2   26  -0.451  -0.094  -0.177
    1UNL     H3   27  -0.454  -0.164  -0.004
    1UNL     H4   28  -0.517   0.076   0.069
    1UNL     H5   29  -0.495   0.139  -0.093
    1UNL     H6   30  -0.308   0.191   0.056
    1UNL     H7   31  -0.277  -0.020   0.174
    1UNL     H8   32  -0.135  -0.196   0.063
    1UNL     H9   33  -0.238  -0.142  -0.064
    1UNL    H10   34  -0.057  -0.086  -0.201
    1UNL    H11   35   0.062  -0.184   0.030
    1UNL    H12   36   0.300  -0.195  -0.270
    1UNL    H13   37   0.156  -0.085  -0.304
    1UNL    H14   38   0.138  -0.259  -0.246
    1UNL    H15   39   0.485  -0.182  -0.132
    1UNL    H16   40   0.657  -0.112   0.055
    1UNL    H17   41   0.595  -0.001   0.232
    1UNL    H18   42   0.346   0.066   0.279
    1UNL    H19   43   0.159   0.222   0.083
    1UNL    H20   44   0.177   0.145  -0.083
    1UNL    H21   45  -0.049   0.275  -0.004
    1UNL    H22   46  -0.139   0.169   0.202
    1UNL    H23   47  -0.010  -0.076   0.246
    1UNL    H24   48   0.115   0.178   0.295
    1UNL    H25   49  -0.226   0.237  -0.158
    1UNL    H26   50  -0.245   0.080  -0.318
   0.00000   0.00000   0.00000   0.00000   0.00000   0.00000   0.00000   0.00000   0.00000
Generated with MDTraj, t= 90.0
 50
    1UNL     C1    1  -0.490  -0.050  -0.090
    1UNL     C2    2  -0.457   0.082  -0.019
    1UNL     C3    3  -0.302   0.106  -0.008
    1UNL     C4    4  -0.218   0.023   0.100
    1UNL     C5    5  -0.163  -0.106   0.023
    1UNL     C6    6  -0.054  -0.068  -0.077
    1UNL     C7    7   0.085  -0.112  -0.024
    1UNL     N1    8   0.209  -0.115  -0.115
    1UNL     C8    9   0.224  -0.174  -0.249
    1UNL     C9   10   0.320  -0.083  -0.026
    1UNL    C10   11   0.452  -0.104  -0.044
    1UNL    C11   12   0.541  -0.070   0.059
    1UNL    C12   13   0.497  -0.020   0.183
    1UNL    C13   14   0.367   0.000   0.201
    1UNL    C14   15   0.280  -0.032   0.098
    1UNL    C15   16   0.133   0.001   0.081
    1UNL    C16   17   0.120   0.138   0.015
    1UNL    C17   18  -0.027   0.163   0.006
    1UNL    C18   19  -0.087   0.109   0.142
    1UNL    C19   20   0.028   0.021   0.200
    1UNL     O1   21   0.095   0.068   0.318
    1UNL     N2   22  -0.074   0.074  -0.109
    1UNL    C20   23  -0.218   0.114  -0.137
    1UNL     O2   24  -0.267   0.042  -0.247
    1UNL     H1   25  -0.598  -0.067  -0.100
    1UNL     H2   26  -0.451  -0.050  -0.192
    1UNL     H3   27  -0.462  -0.138  -0.022
    1UNL     H4   28  -0.494   0.083   0.085
    1UNL     H5   29  -0.499   0.164  -0.075
    1UNL     H6   30  -0.299   0.208   0.033
    1UNL     H7   31  -0.277  -0.003   0.196
    1UNL     H8   32  -0.118  -0.179   0.088
    1UNL     H9   33  -0.246  -0.157  -0.024
    1UNL    H10   34  -0.083  -0.111  -0.174
    1UNL    H11   35   0.075  -0.210   0.030
    1UNL    H12   36   0.257  -0.097  -0.326
    1UNL    H13   37   0.129  -0.226  -0.280
    1UNL    H14   38   0.310  -0.244  -0.235
    1UNL    H15   39   0.487  -0.149  -0.134
    1UNL    H16   40   0.648  -0.081   0.031
    1UNL    H17   41   0.567   0.031   0.247
    1UNL    H18   42   0.329   0.051   0.285
    1UNL    H19   43   0.182   0.211   0.067
    1UNL    H20   44   0.162   0.132  -0.091
    1UNL    H21   45  -0.049   0.275  -0.002
    1UNL    H22   46  -0.111   0.198   0.204
    1UNL    H23   47  -0.005  -0.081   0.229
    1UNL    H24   48   0.139   0.149   0.305
    1UNL    H25   49  -0.213   0.223  -0.163
    1UNL    H26   50  -0.235  -0.056  -0.254
   0.00000   0.00000   0.00000   0.00000   0.00000   0.00000   0.00000   0.00000   0.00000
Generated with MDTraj, t= 91.0
 50
    1UNL     C1    1  -0.485  -0.063  -0.050
    1UNL     C2    2  -0.446   0.077  -0.008
    1UNL     C3    3  -0.294   0.106  -0.009
    1UNL     C4    4  -0.211   0.008   0.079
    1UNL     C5    5  -0.163  -0.113  -0.008
    1UNL     C6    6  -0.048  -0.056  -0.097
    1UNL     C7    7   0.086  -0.092  -0.019
    1UNL     N1    8   0.209  -0.115  -0.105
    1UNL     C8    9   0.211  -0.188  -0.225
    1UNL     C9   10   0.325  -0.086  -0.024
    1UNL    C10   11   0.454  -0.118  -0.045
    1UNL    C11   12   0.546  -0.077   0.053
    1UNL    C12   13   0.510  -0.021   0.170
    1UNL    C13   14   0.370  -0.001   0.208
    1UNL    C14   15   0.281  -0.027   0.100
    1UNL    C15   16   0.134   0.011   0.082
    1UNL    C16   17   0.121   0.148   0.024
    1UNL    C17   18  -0.026   0.164   0.008
    1UNL    C18   19  -0.094   0.092   0.137
    1UNL    C19   20   0.023   0.017   0.199
    1UNL     O1   21   0.069   0.076   0.323
    1UNL     N2   22  -0.074   0.092  -0.117
    1UNL    C20   23  -0.223   0.124  -0.144
    1UNL     O2   24  -0.275   0.049  -0.257
    1UNL     H1   25  -0.598  -0.073  -0.057
    1UNL     H2   26  -0.444  -0.079  -0.151
    1UNL     H3   27  -0.458  -0.131   0.033
    1UNL     H4   28  -0.478   0.104   0.093
    1UNL     H5   29  -0.488   0.148  -0.078
    1UNL     H6   30  -0.284   0.205   0.035
    1UNL     H7   31  -0.270  -0.037   0.171
    1UNL     H8   32  -0.119  -0.190   0.055
    1UNL     H9   33  -0.244  -0.150  -0.069
    1UNL    H10   34  -0.049  -0.111  -0.194
    1UNL    H11   35   0.083  -0.196   0.024
    1UNL    H12   36   0.136  -0.151  -0.302
    1UNL    H13   37   0.185  -0.293  -0.194
    1UNL    H14   38   0.313  -0.176  -0.263
    1UNL    H15   39   0.484  -0.183  -0.127
    1UNL    H16   40   0.645  -0.108   0.026
    1UNL    H17   41   0.582   0.003   0.245
    1UNL    H18   42   0.346   0.058   0.297
    1UNL    H19   43   0.172   0.218   0.089
    1UNL    H20   44   0.171   0.160  -0.077
    1UNL    H21   45  -0.055   0.275   0.007
    1UNL    H22   46  -0.142   0.157   0.210
    1UNL    H23   47  -0.012  -0.084   0.223
    1UNL    H24   48   0.115   0.153   0.296
    1UNL    H25   49  -0.219   0.232  -0.173
    1UNL    H26   50  -0.194   0.001  -0.296
   0.00000   0.00000   0.00000   0.00000   0.00000   0.00000   0.00000   0.00000   0.00000
Generated with MDTraj, t= 92.0
 50
    1UNL     C1    1  -0.466  -0.093  -0.051
    1UNL     C2    2  -0.447   0.057  -0.033
    1UNL     C3    3  -0.303   0.112   0.000
    1UNL     C4    4  -0.215   0.022   0.095
    1UNL     C5    5  -0.161  -0.096   0.005
    1UNL     C6    6  -0.053  -0.039  -0.102
    1UNL     C7    7   0.086  -0.077  -0.037
    1UNL     N1    8   0.213  -0.108  -0.111
    1UNL     C8    9   0.215  -0.204  -0.219
    1UNL     C9   10   0.327  -0.090  -0.027
    1UNL    C10   11   0.459  -0.131  -0.034
    1UNL    C11   12   0.546  -0.099   0.070
    1UNL    C12   13   0.500  -0.036   0.184
    1UNL    C13   14   0.363   0.001   0.193
    1UNL    C14   15   0.283  -0.016   0.085
    1UNL    C15   16   0.135   0.023   0.073
    1UNL    C16   17   0.116   0.172   0.017
    1UNL    C17   18  -0.033   0.176   0.011
    1UNL    C18   19  -0.093   0.095   0.141
    1UNL    C19   20   0.034   0.014   0.190
    1UNL     O1   21   0.085   0.055   0.316
    1UNL     N2   22  -0.081   0.106  -0.113
    1UNL    C20   23  -0.225   0.134  -0.140
    1UNL     O2   24  -0.284   0.048  -0.242
    1UNL     H1   25  -0.573  -0.118  -0.093
    1UNL     H2   26  -0.405  -0.122  -0.138
    1UNL     H3   27  -0.461  -0.144   0.045
    1UNL     H4   28  -0.516   0.103   0.036
    1UNL     H5   29  -0.468   0.106  -0.127
    1UNL     H6   30  -0.315   0.211   0.040
    1UNL     H7   31  -0.278  -0.025   0.183
    1UNL     H8   32  -0.116  -0.172   0.069
    1UNL     H9   33  -0.237  -0.135  -0.060
    1UNL    H10   34  -0.054  -0.088  -0.200
    1UNL    H11   35   0.086  -0.168   0.030
    1UNL    H12   36   0.112  -0.248  -0.228
    1UNL    H13   37   0.274  -0.293  -0.184
    1UNL    H14   38   0.244  -0.162  -0.316
    1UNL    H15   39   0.495  -0.194  -0.116
    1UNL    H16   40   0.641  -0.152   0.083
    1UNL    H17   41   0.574  -0.032   0.266
    1UNL    H18   42   0.328   0.052   0.279
    1UNL    H19   43   0.156   0.265   0.059
    1UNL    H20   44   0.159   0.176  -0.087
    1UNL    H21   45  -0.069   0.283  -0.007
    1UNL    H22   46  -0.123   0.164   0.216
    1UNL    H23   47   0.022  -0.093   0.216
    1UNL    H24   48   0.135   0.144   0.313
    1UNL    H25   49  -0.240   0.238  -0.172
    1UNL    H26   50  -0.214  -0.004  -0.277
   0.00000   0.00000   0.00000   0.00000   0.00000   0.00000   0.00000   0.00000   0.00000
Generated with MDTraj, t= 93.0
 50
    1UNL     C1    1  -0.483  -0.074  -0.088
    1UNL     C2    2  -0.446   0.043   0.003
    1UNL     C3    3  -0.298   0.096   0.009
    1UNL     C4    4  -0.203   0.004   0.089
    1UNL     C5    5  -0.160  -0.115  -0.000
    1UNL     C6    6  -0.049  -0.051  -0.093
    1UNL     C7    7   0.088  -0.083  -0.039
    1UNL     N1    8   0.217  -0.096  -0.121
    1UNL     C8    9   0.218  -0.203  -0.226
    1UNL     C9   10   0.321  -0.082  -0.026
    1UNL    C10   11   0.459  -0.120  -0.034
    1UNL    C11   12   0.547  -0.112   0.069
    1UNL    C12   13   0.492  -0.062   0.193
    1UNL    C13   14   0.368  -0.011   0.198
    1UNL    C14   15   0.284  -0.013   0.088
    1UNL    C15   16   0.133   0.020   0.073
    1UNL    C16   17   0.118   0.168   0.009
    1UNL    C17   18  -0.032   0.174   0.010
    1UNL    C18   19  -0.092   0.100   0.140
    1UNL    C19   20   0.036   0.032   0.198
    1UNL     O1   21   0.079   0.109   0.313
    1UNL     N2   22  -0.083   0.097  -0.110
    1UNL    C20   23  -0.228   0.126  -0.133
    1UNL     O2   24  -0.281   0.054  -0.248
    1UNL     H1   25  -0.596  -0.087  -0.116
    1UNL     H2   26  -0.438  -0.052  -0.188
    1UNL     H3   27  -0.457  -0.167  -0.039
    1UNL     H4   28  -0.471   0.012   0.103
    1UNL     H5   29  -0.517   0.124  -0.009
    1UNL     H6   30  -0.298   0.188   0.062
    1UNL     H7   31  -0.269  -0.036   0.179
    1UNL     H8   32  -0.116  -0.194   0.059
    1UNL     H9   33  -0.240  -0.151  -0.065
    1UNL    H10   34  -0.047  -0.108  -0.187
    1UNL    H11   35   0.084  -0.176   0.022
    1UNL    H12   36   0.140  -0.277  -0.212
    1UNL    H13   37   0.311  -0.264  -0.221
    1UNL    H14   38   0.205  -0.156  -0.328
    1UNL    H15   39   0.493  -0.150  -0.126
    1UNL    H16   40   0.647  -0.150   0.061
    1UNL    H17   41   0.552  -0.058   0.279
    1UNL    H18   42   0.335   0.025   0.294
    1UNL    H19   43   0.170   0.245   0.067
    1UNL    H20   44   0.163   0.183  -0.092
    1UNL    H21   45  -0.060   0.285  -0.000
    1UNL    H22   46  -0.137   0.156   0.216
    1UNL    H23   47  -0.006  -0.056   0.246
    1UNL    H24   48   0.115   0.199   0.273
    1UNL    H25   49  -0.244   0.232  -0.151
    1UNL    H26   50  -0.219   0.081  -0.320
   0.00000   0.00000   0.00000   0.00000   0.00000   0.00000   0.00000   0.00000   0.00000
Generated with MDTraj, t= 94.0
 50
    1UNL     C1    1  -0.480  -0.068  -0.084
    1UNL     C2    2  -0.452   0.059  -0.012
    1UNL     C3    3  -0.302   0.107  -0.003
    1UNL     C4    4  -0.216   0.020   0.102
    1UNL     C5    5  -0.162  -0.102   0.022
    1UNL     C6    6  -0.054  -0.058  -0.082
    1UNL     C7    7   0.086  -0.088  -0.028
    1UNL     N1    8   0.215  -0.094  -0.112
    1UNL     C8    9   0.209  -0.168  -0.246
    1UNL     C9   10   0.324  -0.082  -0.023
    1UNL    C10   11   0.458  -0.122  -0.037
    1UNL    C11   12   0.539  -0.118   0.073
    1UNL    C12   13   0.498  -0.043   0.180
    1UNL    C13   14   0.367   0.003   0.193
    1UNL    C14   15   0.282  -0.019   0.091
    1UNL    C15   16   0.137   0.016   0.078
    1UNL    C16   17   0.120   0.155   0.016
    1UNL    C17   18  -0.029   0.170   0.002
    1UNL    C18   19  -0.087   0.102   0.139
    1UNL    C19   20   0.030   0.020   0.200
    1UNL     O1   21   0.087   0.078   0.319
    1UNL     N2   22  -0.077   0.088  -0.116
    1UNL    C20   23  -0.223   0.115  -0.143
    1UNL     O2   24  -0.269   0.027  -0.246
    1UNL     H1   25  -0.588  -0.086  -0.114
    1UNL     H2   26  -0.433  -0.058  -0.188
    1UNL     H3   27  -0.451  -0.154  -0.024
    1UNL     H4   28  -0.492   0.049   0.086
    1UNL     H5   29  -0.518   0.134  -0.053
    1UNL     H6   30  -0.300   0.207   0.032
    1UNL     H7   31  -0.276  -0.001   0.200
    1UNL     H8   32  -0.124  -0.171   0.095
    1UNL     H9   33  -0.238  -0.150  -0.041
    1UNL    H10   34  -0.057  -0.116  -0.176
    1UNL    H11   35   0.070  -0.187   0.015
    1UNL    H12   36   0.145  -0.254  -0.239
    1UNL    H13   37   0.305  -0.208  -0.283
    1UNL    H14   38   0.162  -0.091  -0.315
    1UNL    H15   39   0.485  -0.158  -0.144
    1UNL    H16   40   0.648  -0.135   0.063
    1UNL    H17   41   0.571  -0.005   0.257
    1UNL    H18   42   0.321   0.047   0.280
    1UNL    H19   43   0.169   0.230   0.084
    1UNL    H20   44   0.161   0.169  -0.083
    1UNL    H21   45  -0.064   0.279  -0.002
    1UNL    H22   46  -0.103   0.182   0.201
    1UNL    H23   47   0.005  -0.079   0.231
    1UNL    H24   48   0.143   0.160   0.294
    1UNL    H25   49  -0.232   0.217  -0.178
    1UNL    H26   50  -0.212   0.049  -0.329
   0.00000   0.00000   0.00000   0.00000   0.00000   0.00000   0.00000   0.00000   0.00000
Generated with MDTraj, t= 95.0
 50
    1UNL     C1    1  -0.482  -0.070  -0.032
    1UNL     C2    2  -0.455   0.077  -0.042
    1UNL     C3    3  -0.301   0.113  -0.017
    1UNL     C4    4  -0.219   0.020   0.078
    1UNL     C5    5  -0.166  -0.101   0.001
    1UNL     C6    6  -0.051  -0.056  -0.087
    1UNL     C7    7   0.082  -0.102  -0.021
    1UNL     N1    8   0.206  -0.126  -0.094
    1UNL     C8    9   0.211  -0.139  -0.242
    1UNL     C9   10   0.324  -0.098  -0.017
    1UNL    C10   11   0.455  -0.123  -0.039
    1UNL    C11   12   0.555  -0.085   0.052
    1UNL    C12   13   0.515  -0.026   0.170
    1UNL    C13   14   0.377   0.006   0.193
    1UNL    C14   15   0.284  -0.035   0.105
    1UNL    C15   16   0.132   0.001   0.089
    1UNL    C16   17   0.130   0.136   0.030
    1UNL    C17   18  -0.019   0.165   0.009
    1UNL    C18   19  -0.097   0.106   0.133
    1UNL    C19   20   0.018   0.015   0.201
    1UNL     O1   21   0.073   0.076   0.317
    1UNL     N2   22  -0.072   0.095  -0.113
    1UNL    C20   23  -0.221   0.119  -0.148
    1UNL     O2   24  -0.273   0.030  -0.244
    1UNL     H1   25  -0.586  -0.103  -0.036
    1UNL     H2   26  -0.448  -0.112  -0.133
    1UNL     H3   27  -0.434  -0.115   0.060
    1UNL     H4   28  -0.521   0.130   0.021
    1UNL     H5   29  -0.482   0.110  -0.141
    1UNL     H6   30  -0.300   0.213   0.020
    1UNL     H7   31  -0.278  -0.012   0.171
    1UNL     H8   32  -0.131  -0.179   0.067
    1UNL     H9   33  -0.249  -0.148  -0.054
    1UNL    H10   34  -0.053  -0.099  -0.188
    1UNL    H11   35   0.051  -0.205   0.000
    1UNL    H12   36   0.206  -0.243  -0.280
    1UNL    H13   37   0.302  -0.096  -0.284
    1UNL    H14   38   0.125  -0.077  -0.274
    1UNL    H15   39   0.479  -0.176  -0.126
    1UNL    H16   40   0.657  -0.109   0.035
    1UNL    H17   41   0.584   0.010   0.237
    1UNL    H18   42   0.346   0.047   0.287
    1UNL    H19   43   0.170   0.213   0.103
    1UNL    H20   44   0.177   0.134  -0.066
    1UNL    H21   45  -0.040   0.277   0.010
    1UNL    H22   46  -0.127   0.185   0.192
    1UNL    H23   47  -0.011  -0.084   0.231
    1UNL    H24   48   0.119   0.158   0.297
    1UNL    H25   49  -0.238   0.218  -0.187
    1UNL    H26   50  -0.225   0.040  -0.324
   0.00000   0.00000   0.00000   0.00000   0.00000   0.00000   0.00000   0.00000   0.00000
Generated with MDTraj, t= 96.0
 50
    1UNL     C1    1  -0.487  -0.059  -0.032
    1UNL     C2    2  -0.442   0.086  -0.030
    1UNL     C3    3  -0.289   0.114  -0.012
    1UNL     C4    4  -0.211   0.022   0.087
    1UNL     C5    5  -0.162  -0.106   0.012
    1UNL     C6    6  -0.051  -0.076  -0.086
    1UNL     C7    7   0.088  -0.112  -0.025
    1UNL     N1    8   0.208  -0.131  -0.103
    1UNL     C8    9   0.205  -0.123  -0.249
    1UNL     C9   10   0.321  -0.091  -0.021
    1UNL    C10   11   0.458  -0.108  -0.039
    1UNL    C11   12   0.543  -0.075   0.068
    1UNL    C12   13   0.497  -0.013   0.186
    1UNL    C13   14   0.361   0.006   0.201
    1UNL    C14   15   0.275  -0.041   0.107
    1UNL    C15   16   0.127  -0.005   0.081
    1UNL    C16   17   0.126   0.128   0.008
    1UNL    C17   18  -0.023   0.154   0.003
    1UNL    C18   19  -0.090   0.105   0.132
    1UNL    C19   20   0.027   0.012   0.194
    1UNL     O1   21   0.083   0.075   0.310
    1UNL     N2   22  -0.069   0.075  -0.116
    1UNL    C20   23  -0.213   0.117  -0.148
    1UNL     O2   24  -0.275   0.041  -0.247
    1UNL     H1   25  -0.594  -0.070  -0.027
    1UNL     H2   26  -0.468  -0.105  -0.134
    1UNL     H3   27  -0.444  -0.118   0.058
    1UNL     H4   28  -0.486   0.129   0.056
    1UNL     H5   29  -0.487   0.140  -0.112
    1UNL     H6   30  -0.289   0.217   0.021
    1UNL     H7   31  -0.269  -0.005   0.181
    1UNL     H8   32  -0.127  -0.176   0.088
    1UNL     H9   33  -0.244  -0.167  -0.029
    1UNL    H10   34  -0.072  -0.132  -0.177
    1UNL    H11   35   0.066  -0.201   0.032
    1UNL    H12   36   0.187  -0.222  -0.300
    1UNL    H13   37   0.303  -0.093  -0.285
    1UNL    H14   38   0.132  -0.049  -0.277
    1UNL    H15   39   0.494  -0.168  -0.120
    1UNL    H16   40   0.644  -0.118   0.055
    1UNL    H17   41   0.568   0.004   0.273
    1UNL    H18   42   0.323   0.068   0.282
    1UNL    H19   43   0.158   0.213   0.076
    1UNL    H20   44   0.175   0.117  -0.087
    1UNL    H21   45  -0.040   0.264  -0.016
    1UNL    H22   46  -0.127   0.184   0.189
    1UNL    H23   47  -0.009  -0.087   0.215
    1UNL    H24   48   0.100   0.163   0.288
    1UNL    H25   49  -0.205   0.218  -0.185
    1UNL    H26   50  -0.210   0.040  -0.323
   0.00000   0.00000   0.00000   0.00000   0.00000   0.00000   0.00000   0.00000   0.00000
Generated with MDTraj, t= 97.0
 50
    1UNL     C1    1  -0.504  -0.061  -0.069
    1UNL     C2    2  -0.447   0.072  -0.016
    1UNL     C3    3  -0.298   0.101  -0.010
    1UNL     C4    4  -0.214   0.020   0.096
    1UNL     C5    5  -0.154  -0.103   0.021
    1UNL     C6    6  -0.054  -0.058  -0.085
    1UNL     C7    7   0.085  -0.093  -0.025
    1UNL     N1    8   0.209  -0.122  -0.104
    1UNL     C8    9   0.226  -0.112  -0.242
    1UNL     C9   10   0.318  -0.098  -0.017
    1UNL    C10   11   0.454  -0.131  -0.043
    1UNL    C11   12   0.539  -0.097   0.059
    1UNL    C12   13   0.499  -0.040   0.180
    1UNL    C13   14   0.368  -0.005   0.203
    1UNL    C14   15   0.277  -0.033   0.099
    1UNL    C15   16   0.138   0.008   0.083
    1UNL    C16   17   0.126   0.151   0.008
    1UNL    C17   18  -0.029   0.170   0.001
    1UNL    C18   19  -0.090   0.112   0.129
    1UNL    C19   20   0.030   0.024   0.191
    1UNL     O1   21   0.076   0.086   0.313
    1UNL     N2   22  -0.073   0.089  -0.117
    1UNL    C20   23  -0.215   0.103  -0.146
    1UNL     O2   24  -0.267   0.013  -0.228
    1UNL     H1   25  -0.610  -0.062  -0.089
    1UNL     H2   26  -0.473  -0.076  -0.177
    1UNL     H3   27  -0.480  -0.156  -0.006
    1UNL     H4   28  -0.482   0.088   0.081
    1UNL     H5   29  -0.498   0.148  -0.072
    1UNL     H6   30  -0.296   0.206   0.020
    1UNL     H7   31  -0.271  -0.020   0.185
    1UNL     H8   32  -0.111  -0.174   0.089
    1UNL     H9   33  -0.234  -0.160  -0.028
    1UNL    H10   34  -0.053  -0.112  -0.180
    1UNL    H11   35   0.070  -0.190   0.026
    1UNL    H12   36   0.152  -0.176  -0.295
    1UNL    H13   37   0.319  -0.163  -0.271
    1UNL    H14   38   0.228  -0.011  -0.277
    1UNL    H15   39   0.473  -0.191  -0.141
    1UNL    H16   40   0.643  -0.117   0.057
    1UNL    H17   41   0.566  -0.026   0.258
    1UNL    H18   42   0.336   0.071   0.270
    1UNL    H19   43   0.168   0.241   0.061
    1UNL    H20   44   0.164   0.139  -0.092
    1UNL    H21   45  -0.051   0.277  -0.020
    1UNL    H22   46  -0.115   0.184   0.203
    1UNL    H23   47   0.005  -0.075   0.220
    1UNL    H24   48   0.097   0.179   0.305
    1UNL    H25   49  -0.233   0.199  -0.194
    1UNL    H26   50  -0.201  -0.001  -0.308
   0.00000   0.00000   0.00000   0.00000   0.00000   0.00000   0.00000   0.00000   0.00000
Generated with MDTraj, t= 98.0
 50
    1UNL     C1    1  -0.474  -0.078  -0.079
    1UNL     C2    2  -0.445   0.059  -0.024
    1UNL     C3    3  -0.302   0.089  -0.000
    1UNL     C4    4  -0.204   0.010   0.091
    1UNL     C5    5  -0.159  -0.114   0.021
    1UNL     C6    6  -0.053  -0.065  -0.082
    1UNL     C7    7   0.083  -0.087  -0.019
    1UNL     N1    8   0.203  -0.117  -0.098
    1UNL     C8    9   0.204  -0.114  -0.245
    1UNL     C9   10   0.317  -0.087  -0.023
    1UNL    C10   11   0.443  -0.142  -0.033
    1UNL    C11   12   0.533  -0.122   0.069
    1UNL    C12   13   0.498  -0.054   0.190
    1UNL    C13   14   0.375   0.005   0.199
    1UNL    C14   15   0.286  -0.011   0.094
    1UNL    C15   16   0.140   0.019   0.077
    1UNL    C16   17   0.122   0.161   0.000
    1UNL    C17   18  -0.030   0.172  -0.001
    1UNL    C18   19  -0.082   0.110   0.133
    1UNL    C19   20   0.036   0.032   0.192
    1UNL     O1   21   0.088   0.094   0.311
    1UNL     N2   22  -0.073   0.088  -0.114
    1UNL    C20   23  -0.223   0.110  -0.136
    1UNL     O2   24  -0.282   0.036  -0.242
    1UNL     H1   25  -0.572  -0.090  -0.126
    1UNL     H2   26  -0.412  -0.097  -0.172
    1UNL     H3   27  -0.456  -0.158   0.000
    1UNL     H4   28  -0.506   0.066   0.060
    1UNL     H5   29  -0.481   0.133  -0.091
    1UNL     H6   30  -0.310   0.185   0.056
    1UNL     H7   31  -0.261  -0.021   0.181
    1UNL     H8   32  -0.126  -0.188   0.094
    1UNL     H9   33  -0.243  -0.156  -0.032
    1UNL    H10   34  -0.058  -0.140  -0.162
    1UNL    H11   35   0.081  -0.184   0.038
    1UNL    H12   36   0.117  -0.064  -0.283
    1UNL    H13   37   0.185  -0.215  -0.281
    1UNL    H14   38   0.294  -0.073  -0.293
    1UNL    H15   39   0.470  -0.181  -0.123
    1UNL    H16   40   0.636  -0.161   0.061
    1UNL    H17   41   0.578  -0.021   0.262
    1UNL    H18   42   0.353   0.065   0.288
    1UNL    H19   43   0.169   0.234   0.070
    1UNL    H20   44   0.166   0.165  -0.098
    1UNL    H21   45  -0.064   0.276  -0.009
    1UNL    H22   46  -0.118   0.185   0.205
    1UNL    H23   47   0.001  -0.066   0.212
    1UNL    H24   48   0.113   0.190   0.292
    1UNL    H25   49  -0.228   0.217  -0.162
    1UNL    H26   50  -0.213   0.021  -0.305
   0.00000   0.00000   0.00000   0.00000   0.00000   0.00000   0.00000   0.00000   0.00000
Generated with MDTraj, t= 99.0
 50
    1UNL     C1    1  -0.457  -0.101  -0.047
    1UNL     C2    2  -0.450   0.053  -0.020
    1UNL     C3    3  -0.305   0.104  -0.006
    1UNL     C4    4  -0.212   0.019   0.093
    1UNL     C5    5  -0.159  -0.104   0.011
    1UNL     C6    6  -0.054  -0.056  -0.097
    1UNL     C7    7   0.081  -0.089  -0.033
    1UNL     N1    8   0.209  -0.111  -0.103
    1UNL     C8    9   0.224  -0.133  -0.253
    1UNL     C9   10   0.315  -0.097  -0.011
    1UNL    C10   11   0.447  -0.127  -0.036
    1UNL    C11   12   0.537  -0.110   0.070
    1UNL    C12   13   0.497  -0.040   0.187
    1UNL    C13   14   0.359  -0.015   0.206
    1UNL    C14   15   0.275  -0.036   0.106
    1UNL    C15   16   0.135   0.012   0.082
    1UNL    C16   17   0.125   0.153   0.009
    1UNL    C17   18  -0.028   0.173  -0.006
    1UNL    C18   19  -0.083   0.111   0.130
    1UNL    C19   20   0.029   0.024   0.197
    1UNL     O1   21   0.092   0.099   0.301
    1UNL     N2   22  -0.084   0.093  -0.117
    1UNL    C20   23  -0.227   0.127  -0.136
    1UNL     O2   24  -0.278   0.047  -0.240
    1UNL     H1   25  -0.554  -0.141  -0.089
    1UNL     H2   26  -0.392  -0.126  -0.136
    1UNL     H3   27  -0.426  -0.152   0.045
    1UNL     H4   28  -0.509   0.076   0.062
    1UNL     H5   29  -0.493   0.108  -0.100
    1UNL     H6   30  -0.309   0.201   0.049
    1UNL     H7   31  -0.252  -0.013   0.191
    1UNL     H8   32  -0.116  -0.171   0.083
    1UNL     H9   33  -0.241  -0.154  -0.034
    1UNL    H10   34  -0.071  -0.117  -0.187
    1UNL    H11   35   0.074  -0.191   0.013
    1UNL    H12   36   0.296  -0.075  -0.304
    1UNL    H13   37   0.131  -0.095  -0.293
    1UNL    H14   38   0.237  -0.240  -0.281
    1UNL    H15   39   0.484  -0.168  -0.129
    1UNL    H16   40   0.638  -0.135   0.052
    1UNL    H17   41   0.572  -0.023   0.262
    1UNL    H18   42   0.326   0.016   0.301
    1UNL    H19   43   0.176   0.235   0.061
    1UNL    H20   44   0.182   0.136  -0.083
    1UNL    H21   45  -0.067   0.275  -0.011
    1UNL    H22   46  -0.103   0.197   0.200
    1UNL    H23   47  -0.004  -0.072   0.228
    1UNL    H24   48   0.118   0.193   0.263
    1UNL    H25   49  -0.239   0.236  -0.156
    1UNL    H26   50  -0.214   0.029  -0.311
   0.00000   0.00000   0.00000   0.00000   0.00000   0.00000   0.00000   0.00000   0.00000
