[ moleculetype ]
; name        nrexcl
res           1

[ atoms ]
;    nr  type  resnr resid  atom  cgnr     charge       mass
      1 TC3       1 res   C1        1      0.000     36.000
      2 SN6       1 res   C2        2      0.000     54.000
      3 TC3       1 res   C3        3      0.000     36.000
      4 TN6d      1 res   C4        4      0.000     36.000
      5 SC5       1 res   C5        5      0.000     54.000
      6 TN1       1 res   C6        6      0.000     36.000
      7 TC5       1 res   C7        7      0.000     36.000
      8 TC5       1 res   C8        8      0.000     36.000
      9 TC5       1 res   C9        9      0.000     36.000
     10 TC3       1 res   C10      10      0.000     36.000
     11 TP1       1 res   C11      11      0.000     36.000

[ constraints ]
;  ai    aj   funct      b0(nm)
    1     2     1      0.28120
    5    11     1      0.25554
   10    11     1      0.25473
    2     3     1      0.29398
    4     5     1      0.24795
    5    10     1      0.25311
    7     9     1      0.24845
    5     7     1      0.20393
    3     4     1      0.24536
    3    10     1      0.29977
    7     8     1      0.24903
    4    10     1      0.29813
    6     7     1      0.30279
    2     4     1      0.24283
    8     9     1      0.28989

[ bonds ]
;  ai    aj   funct      b0(nm)          k(kJ/mol/nm^2)
    5     6     1      0.33411           8954.2

[ angles ]
;  ai    aj    ak  funct     th0(deg)        k(kJ/mol/rad^2)
    1     2     3     1     65.58975           744.68
    1     2     4     1    110.46873           433.87
    2     3     4     1     52.57429          2237.17
    2     3    10     1     59.67960          2869.84
    2     4     3     1     74.04316          1945.37
    2     4     5     1    117.60854          1604.43
    2     4    10     1     65.27067          3244.64
    3     2     4     1     53.38245          2805.54
    3     4     5     1     93.35336          2532.89
    3     4    10     1     66.12544          4297.32
    3    10     4     1     48.45038          9345.67
    3    10     5     1     80.46380          3923.84
    3    10    11     1     78.12473          1067.90
    4     3    10     1     65.42416          5394.21
    4     5     6     1     66.71109          1705.25
    4     5     7     1    125.50300          1218.76
    4     5    10     1     73.02356          5555.73
    4     5    11     1    109.82162          1249.90
    4    10     5     1     52.69226          7008.47
    4    10    11     1     96.01074          2405.34
    5     4    10     1     54.28417          8211.46
    5     6     7     1     36.85246          3191.00
    5     7     6     1     79.97398           312.59
    5     7     8     1    157.61856           332.25
    5     7     9     1    118.15134           658.64
    5    10    11     1     60.40944          2155.31
    5    11    10     1     59.49076          2552.50
    6     5     7     1     63.17499           523.23
    6     5    10     1    138.26155           689.57
    6     5    11     1    141.01605           109.43
    6     7     8     1     89.37055          1002.54
    6     7     9     1    158.06562           581.31
    7     5    10     1    156.40338           901.84
    7     5    11     1     97.68856           932.39
    7     8     9     1     54.26057         11023.23
    7     9     8     1     54.45417          5847.50
    8     7     9     1     71.28525          5614.64
   10     5    11     1     60.09963          2283.33

[ dihedrals ]
;  ai    aj    ak    al  funct   phi0(deg)        k(kJ/mol)   mult
    1     2     3     4     1    -37.81929        9.263      1
    1     2     3    10     1     44.09692        9.283      1
    1     2     4     3     1    144.90349        8.523      1
    1     2     4     5     1     59.91416        9.290      1
    1     2     4    10     1     75.02297        8.522      1
    2     3     4     5     1    -62.94187        5.545      1
    2     3     4    10     1   -110.94588        4.013      1
    2     3    10     4     1    119.10610        5.502      1
    2     3    10     5     1     71.10687        5.530      1
    2     3    10    11     1     10.05773        7.760      1
    2     4     3    10     1    110.94588        4.013      1
    2     4     5     6     1     24.05612       15.095      1
    2     4     5     7     1      0.94569        8.551      1
    2     4     5    10     1   -163.06475        5.557      1
    2     4     5    11     1   -115.00577        8.531      1
    2     4    10     3     1    -97.96294        4.797      1
    2     4    10     5     1     15.98063        6.300      1
    2     4    10    11     1    -32.00735        7.766      1
    3     2     4     5     1     94.94992        5.545      1
    3     2     4    10     1    109.00921        3.992      1
    3     4     5     6     1    -50.02359       13.750      1
    3     4     5     7     1    -73.65646        9.213      1
    3     4     5    10     1    122.65667        3.962      1
    3     4     5    11     1    171.96725        6.305      1
    3     4    10     5     1    -65.76371        4.760      1
    3     4    10    11     1   -115.20601        6.985      1
    3    10     4     5     1     65.76371        4.760      1
    3    10     5     4     1   -135.99505        3.235      1
    3    10     5     6     1   -127.05625       18.533      1
    3    10     5     7     1     76.92718       15.645      1
    3    10     5    11     1    100.84846        7.014      1
    3    10    11     5     1    -94.92704        3.992      1
    4     2     3    10     1    -99.01973        4.011      1
    4     3    10     5     1    132.01738        3.255      1
    4     3    10    11     1     69.43167        4.776      1
    4     5     6     7     1     20.92317       14.380      1
    4     5     7     6     1   -157.01922       15.810      1
    4     5     7     8     1    -98.34823       17.552      1
    4     5     7     9     1     17.18534       12.965      1
    4     5    10    11     1    -54.98870        7.038      1
    4     5    11    10     1    124.90811        5.487      1
    4    10     5     6     1   -171.93793       17.848      1
    4    10     5     7     1     32.82391       15.609      1
    4    10     5    11     1     54.98870        7.038      1
    4    10    11     5     1   -139.03972        4.037      1
    5     4     3    10     1   -131.04215        3.938      1
    5     4    10    11     1    133.08129        6.986      1
    5     6     7     8     1     18.97236       10.024      1
    5     6     7     9     1     18.88463       30.733      1
    5     7     8     9     1    -56.66048       19.618      1
    5     7     9     8     1     19.85188       12.154      1
    6     5     4    10     1      7.93290       13.742      1
    6     5     7     8     1   -119.00087       19.663      1
    6     5     7     9     1     -2.17512       16.478      1
    6     5    10    11     1    -45.97507       17.868      1
    6     5    11    10     1     48.03263        9.271      1
    6     7     5    10     1    -17.76721       17.725      1
    6     7     5    11     1    -35.05563       13.017      1
    6     7     8     9     1      2.94288       15.831      1
    6     7     9     8     1   -175.55616       29.550      1
    7     5     4    10     1    -14.92515        8.521      1
    7     5    10    11     1    159.63531       14.952      1
    7     5    11    10     1     -8.91118        7.046      1
    7     6     5    10     1     11.00928       12.907      1
    7     6     5    11     1    114.07756       12.168      1
    8     7     5    10     1     40.32800       16.999      1
    8     7     5    11     1     21.49135       16.284      1
    9     7     5    10     1    157.04584       15.677      1
    9     7     5    11     1    137.00590       14.254      1
   10     4     5    11     1   -131.04008        5.537      1
