1TPCN00050
11
    1res  C1    1    0.435   0.171   0.072
    1res  C2    2    0.322  -0.068  -0.120
    1res  C3    3    0.143  -0.077   0.134
    1res  C4    4    0.082  -0.152  -0.091
    1res  C5    5   -0.098   0.023  -0.151
    1res  C6    6   -0.203  -0.306   0.060
    1res  C7    7   -0.289  -0.019   0.000
    1res  C8    8   -0.516  -0.083   0.086
    1res  C9    9   -0.445   0.173  -0.038
    1res  C10   10    0.116   0.146  -0.072
    1res  C11   11   -0.097   0.133   0.130
  10.00000  10.00000  10.00000
