[ moleculetype ]
; name        nrexcl
res           1

[ atoms ]
;    nr  type  resnr resid  atom  cgnr     charge       mass
      1 TC6       1 res   C1        1      0.000     36.000
      2 TC5       1 res   C2        2      0.000     36.000
      3 TC5       1 res   C3        3      0.000     36.000
      4 TC5       1 res   C4        4      0.000     36.000
      5 TC6       1 res   C5        5      0.000     36.000

[ constraints ]
;  ai    aj   funct      b0(nm)
    1     2     1      0.21880
    2     3     1      0.25041
    1     5     1      0.28747
    2     5     1      0.25930
    3     4     1      0.28889
    2     4     1      0.25008

[ bonds ]
;  ai    aj   funct      b0(nm)          k(kJ/mol/nm^2)

[ angles ]
;  ai    aj    ak  funct     th0(deg)        k(kJ/mol/rad^2)
    1     2     3     1    129.13996          3738.17
    1     2     4     1    159.13259          2414.81
    1     2     5     1     73.37573          6342.56
    1     5     2     1     46.82816         10914.46
    2     1     5     1     59.79612         12668.25
    2     3     4     1     54.68888         14464.40
    2     4     3     1     54.79584         13349.95
    3     2     4     1     70.51530          7121.10
    3     2     5     1    156.84753          5348.68
    4     2     5     1     86.57555          5468.48

[ dihedrals ]
;  ai    aj    ak    al  funct   phi0(deg)        k(kJ/mol)   mult
    1     2     3     4     1     -1.15031       12.939      1
    1     2     4     3     1      1.87985       22.968      1
    1     5     2     3     1     -1.88114       16.463      1
    1     5     2     4     1     -1.85066       10.771      1
    3     2     1     5     1     -0.00605        9.334      1
    3     4     2     5     1     -0.01067        6.335      1
    4     2     1     5     1    179.84661       22.929      1
    4     3     2     5     1    179.96678       13.730      1
