[ moleculetype ]
; name        nrexcl
res           1

[ atoms ]
;    nr  type  resnr resid  atom  cgnr     charge       mass
      1 TC6       1 res   C1        1      0.000     36.000
      2 TC5       1 res   C2        2      0.000     36.000
      3 TC5       1 res   C3        3      0.000     36.000
      4 TC5       1 res   C4        4      0.000     36.000
      5 TC6       1 res   C5        5      0.000     36.000

[ constraints ]
;  ai    aj   funct      b0(nm)
    1     2     1      0.21845
    2     3     1      0.25179
    1     5     1      0.28554
    2     5     1      0.25838
    3     4     1      0.28975
    2     4     1      0.24937

[ bonds ]
;  ai    aj   funct      b0(nm)          k(kJ/mol/nm^2)

[ angles ]
;  ai    aj    ak  funct     th0(deg)        k(kJ/mol/rad^2)
    1     2     3     1    128.76374          2409.99
    1     2     4     1    159.46658          1876.28
    1     2     5     1     73.03110          4248.55
    1     5     2     1     47.03313          6418.48
    2     1     5     1     59.93578          6407.78
    2     3     4     1     54.29209          5605.93
    2     4     3     1     55.06556          8935.80
    3     2     4     1     70.64235          4769.64
    3     2     5     1    157.88029          3005.47
    4     2     5     1     87.63743          3436.87

[ dihedrals ]
;  ai    aj    ak    al  funct   phi0(deg)        k(kJ/mol)   mult
    1     2     3     4     1     -0.02636       12.279      1
    1     2     4     3     1      0.96890       23.664      1
    1     5     2     3     1      1.02047       15.712      1
    1     5     2     4     1     -0.04068       12.227      1
    3     2     1     5     1     -0.00347        9.261      1
    3     4     2     5     1     -1.87374        7.825      1
    4     2     1     5     1    178.86965       25.356      1
    4     3     2     5     1    178.76436       17.136      1
