[ moleculetype ]
; name        nrexcl
res           1

[ atoms ]
;    nr  type  resnr resid  atom  cgnr     charge       mass
      1 P4        1 res   C1        1      0.000     72.000
      2 TC5       1 res   C2        2      0.000     36.000
      3 SX3       1 res   C3        3      0.000     54.000
      4 TC5       1 res   C4        4      0.000     36.000

[ constraints ]
;  ai    aj   funct      b0(nm)
    3     4     1      0.29613
    2     3     1      0.27193
    2     4     1      0.29767

[ bonds ]
;  ai    aj   funct      b0(nm)          k(kJ/mol/nm^2)
    1     2     1      0.28646           6573.3

[ angles ]
;  ai    aj    ak  funct     th0(deg)        k(kJ/mol/rad^2)
    1     2     3     1    144.85375           137.10
    1     2     4     1     88.55520           116.95
    2     3     4     1     63.03305         10114.48
    2     4     3     1     54.50733         10440.88
    3     2     4     1     62.45961          7705.46

[ dihedrals ]
;  ai    aj    ak    al  funct   phi0(deg)        k(kJ/mol)   mult
    1     2     3     4     1   -143.28337       18.955      1
    1     2     4     3     1     18.80146       11.453      1
