1TPCN04908
25
    1res  C1    1   -0.665  -0.240  -0.170
    1res  C2    2   -0.700  -0.336   0.108
    1res  C3    3   -0.918  -0.520   0.034
    1res  C4    4   -0.600   0.024  -0.153
    1res  C5    5   -0.385   0.042  -0.051
    1res  C6    6   -0.179   0.071  -0.010
    1res  C7    7   -0.121   0.311  -0.037
    1res  C8    8    0.018   0.574  -0.014
    1res  C9    9    0.237   0.742   0.114
    1res  C10   10   -0.026   0.833  -0.077
    1res  C11   11    0.096   0.734  -0.246
    1res  C12   12    0.039   0.526  -0.293
    1res  C13   13   -0.040   0.123   0.135
    1res  C14   14    0.243   0.299   0.056
    1res  C15   15    0.190  -0.020   0.175
    1res  C16   16    0.449   0.029   0.020
    1res  C17   17    0.524  -0.053  -0.216
    1res  C18   18    0.684  -0.240  -0.177
    1res  C19   19    0.693  -0.168   0.033
    1res  C20   20    0.818  -0.382   0.203
    1res  C21   21    0.981  -0.584   0.177
    1res  C22   22    1.116  -0.428   0.047
    1res  C23   23    0.957  -0.256  -0.028
    1res  C24   24    0.477  -0.200   0.084
    1res  C25   25   -0.269  -0.168   0.120
  10.00000  10.00000  10.00000
