1TPCN00321
10
    1res  C1    1   -0.287   0.145   0.187
    1res  C2    2   -0.131   0.008   0.037
    1res  C3    3    0.010   0.274   0.037
    1res  C4    4    0.087   0.032   0.055
    1res  C5    5    0.214  -0.058   0.049
    1res  C6    6    0.467  -0.152   0.032
    1res  C7    7    0.450   0.138   0.078
    1res  C8    8    0.006  -0.294  -0.047
    1res  C9    9   -0.242  -0.145  -0.125
    1res  C10   10   -0.247   0.088  -0.217
  10.00000  10.00000  10.00000
