[ moleculetype ]
; name        nrexcl
res           1

[ atoms ]
;    nr  type  resnr resid  atom  cgnr     charge       mass
      1 TC5       1 res   C1        1      0.000     36.000
      2 X1        1 res   C2        2      0.000     72.000
      3 TC5       1 res   C3        3      0.000     36.000

[ constraints ]
;  ai    aj   funct      b0(nm)
    1     2     1      0.31378
    1     3     1      0.28810
    2     3     1      0.30101

[ bonds ]
;  ai    aj   funct      b0(nm)          k(kJ/mol/nm^2)

[ angles ]
;  ai    aj    ak  funct     th0(deg)        k(kJ/mol/rad^2)
    1     2     3     1     55.84108         11368.82
    1     3     2     1     64.32201         11435.77
    2     1     3     1     59.83691         11541.79

[ dihedrals ]
;  ai    aj    ak    al  funct   phi0(deg)        k(kJ/mol)   mult
