Generated with MDTraj, t= 0.0
 30
    1UNL     C1    1   0.297   0.141  -0.004
    1UNL     C2    2   0.255   0.003   0.032
    1UNL     C3    3   0.288  -0.109  -0.031
    1UNL     C4    4   0.218  -0.221   0.033
    1UNL     O1    5   0.229  -0.336  -0.006
    1UNL     O2    6   0.142  -0.176   0.137
    1UNL     C5    7   0.158  -0.033   0.141
    1UNL     C6    8   0.021   0.035   0.128
    1UNL     C7    9  -0.051  -0.008   0.000
    1UNL     O3   10   0.016   0.044  -0.113
    1UNL     C8   11  -0.201   0.036   0.000
    1UNL     C9   12  -0.263   0.011  -0.137
    1UNL    C10   13  -0.280  -0.042   0.107
    1UNL     O4   14  -0.205   0.176   0.031
    1UNL     H1   15   0.399   0.142  -0.043
    1UNL     H2   16   0.230   0.181  -0.081
    1UNL     H3   17   0.293   0.207   0.082
    1UNL     H4   18   0.353  -0.117  -0.116
    1UNL     H5   19   0.203  -0.010   0.239
    1UNL     H6   20   0.031   0.144   0.126
    1UNL     H7   21  -0.039   0.010   0.215
    1UNL     H8   22  -0.047  -0.118  -0.007
    1UNL     H9   23  -0.014  -0.000  -0.196
    1UNL    H10   24  -0.215   0.074  -0.212
    1UNL    H11   25  -0.253  -0.093  -0.167
    1UNL    H12   26  -0.369   0.037  -0.137
    1UNL    H13   27  -0.270  -0.150   0.091
    1UNL    H14   28  -0.385  -0.016   0.103
    1UNL    H15   29  -0.244  -0.019   0.207
    1UNL    H16   30  -0.297   0.208   0.027
   0.00000   0.00000   0.00000   0.00000   0.00000   0.00000   0.00000   0.00000   0.00000
Generated with MDTraj, t= 1.0
 30
    1UNL     C1    1   0.317   0.129  -0.018
    1UNL     C2    2   0.252  -0.001   0.018
    1UNL     C3    3   0.304  -0.116  -0.020
    1UNL     C4    4   0.234  -0.227   0.048
    1UNL     O1    5   0.253  -0.342   0.019
    1UNL     O2    6   0.139  -0.178   0.128
    1UNL     C5    7   0.163  -0.032   0.134
    1UNL     C6    8   0.024   0.043   0.121
    1UNL     C7    9  -0.053  -0.002  -0.008
    1UNL     O3   10  -0.007   0.053  -0.133
    1UNL     C8   11  -0.212   0.035   0.006
    1UNL     C9   12  -0.280   0.054  -0.134
    1UNL    C10   13  -0.295  -0.062   0.097
    1UNL     O4   14  -0.216   0.166   0.060
    1UNL     H1   15   0.251   0.217  -0.022
    1UNL     H2   16   0.383   0.154   0.061
    1UNL     H3   17   0.381   0.130  -0.108
    1UNL     H4   18   0.370  -0.126  -0.106
    1UNL     H5   19   0.224  -0.013   0.220
    1UNL     H6   20   0.036   0.147   0.115
    1UNL     H7   21  -0.039   0.016   0.215
    1UNL     H8   22  -0.055  -0.109  -0.019
    1UNL     H9   23   0.052  -0.013  -0.168
    1UNL    H10   24  -0.219   0.109  -0.199
    1UNL    H11   25  -0.290  -0.044  -0.173
    1UNL    H12   26  -0.384   0.103  -0.137
    1UNL    H13   27  -0.319  -0.165   0.062
    1UNL    H14   28  -0.392  -0.006   0.094
    1UNL    H15   29  -0.248  -0.068   0.190
    1UNL    H16   30  -0.303   0.213   0.038
   0.00000   0.00000   0.00000   0.00000   0.00000   0.00000   0.00000   0.00000   0.00000
Generated with MDTraj, t= 2.0
 30
    1UNL     C1    1   0.311   0.127  -0.017
    1UNL     C2    2   0.262  -0.005   0.020
    1UNL     C3    3   0.304  -0.121  -0.030
    1UNL     C4    4   0.229  -0.229   0.046
    1UNL     O1    5   0.262  -0.345   0.019
    1UNL     O2    6   0.136  -0.170   0.130
    1UNL     C5    7   0.153  -0.027   0.124
    1UNL     C6    8   0.020   0.046   0.101
    1UNL     C7    9  -0.063  -0.011  -0.008
    1UNL     O3   10  -0.002   0.030  -0.126
    1UNL     C8   11  -0.214   0.044   0.005
    1UNL     C9   12  -0.275   0.067  -0.134
    1UNL    C10   13  -0.285  -0.065   0.092
    1UNL     O4   14  -0.212   0.170   0.085
    1UNL     H1   15   0.420   0.132  -0.026
    1UNL     H2   16   0.265   0.150  -0.111
    1UNL     H3   17   0.276   0.195   0.060
    1UNL     H4   18   0.364  -0.147  -0.115
    1UNL     H5   19   0.194  -0.002   0.221
    1UNL     H6   20   0.042   0.143   0.070
    1UNL     H7   21  -0.045   0.049   0.201
    1UNL     H8   22  -0.064  -0.116  -0.003
    1UNL     H9   23  -0.022   0.123  -0.143
    1UNL    H10   24  -0.219   0.142  -0.183
    1UNL    H11   25  -0.275  -0.022  -0.191
    1UNL    H12   26  -0.384   0.104  -0.133
    1UNL    H13   27  -0.261  -0.166   0.051
    1UNL    H14   28  -0.395  -0.054   0.072
    1UNL    H15   29  -0.236  -0.062   0.183
    1UNL    H16   30  -0.295   0.222   0.051
   0.00000   0.00000   0.00000   0.00000   0.00000   0.00000   0.00000   0.00000   0.00000
Generated with MDTraj, t= 3.0
 30
    1UNL     C1    1   0.296   0.130  -0.030
    1UNL     C2    2   0.247  -0.000   0.019
    1UNL     C3    3   0.287  -0.115  -0.036
    1UNL     C4    4   0.220  -0.226   0.037
    1UNL     O1    5   0.226  -0.344   0.004
    1UNL     O2    6   0.160  -0.177   0.146
    1UNL     C5    7   0.159  -0.034   0.136
    1UNL     C6    8   0.021   0.031   0.128
    1UNL     C7    9  -0.049  -0.003  -0.004
    1UNL     O3   10   0.006   0.065  -0.114
    1UNL     C8   11  -0.202   0.038   0.005
    1UNL     C9   12  -0.263   0.032  -0.140
    1UNL    C10   13  -0.279  -0.059   0.105
    1UNL     O4   14  -0.205   0.170   0.053
    1UNL     H1   15   0.226   0.208  -0.010
    1UNL     H2   16   0.392   0.147   0.021
    1UNL     H3   17   0.312   0.124  -0.137
    1UNL     H4   18   0.365  -0.133  -0.109
    1UNL     H5   19   0.213  -0.002   0.228
    1UNL     H6   20   0.034   0.137   0.123
    1UNL     H7   21  -0.049   0.006   0.214
    1UNL     H8   22  -0.041  -0.106  -0.017
    1UNL     H9   23  -0.022   0.162  -0.123
    1UNL    H10   24  -0.221   0.111  -0.200
    1UNL    H11   25  -0.273  -0.059  -0.199
    1UNL    H12   26  -0.364   0.069  -0.120
    1UNL    H13   27  -0.282  -0.157   0.058
    1UNL    H14   28  -0.385  -0.029   0.122
    1UNL    H15   29  -0.213  -0.067   0.187
    1UNL    H16   30  -0.304   0.202   0.047
   0.00000   0.00000   0.00000   0.00000   0.00000   0.00000   0.00000   0.00000   0.00000
Generated with MDTraj, t= 4.0
 30
    1UNL     C1    1   0.303   0.126  -0.022
    1UNL     C2    2   0.239  -0.005   0.009
    1UNL     C3    3   0.267  -0.121  -0.048
    1UNL     C4    4   0.199  -0.229   0.028
    1UNL     O1    5   0.211  -0.342  -0.016
    1UNL     O2    6   0.143  -0.182   0.142
    1UNL     C5    7   0.169  -0.040   0.136
    1UNL     C6    8   0.031   0.028   0.151
    1UNL     C7    9  -0.036   0.026   0.007
    1UNL     O3   10   0.009   0.119  -0.092
    1UNL     C8   11  -0.189   0.027   0.007
    1UNL     C9   12  -0.246  -0.028  -0.127
    1UNL    C10   13  -0.257  -0.041   0.123
    1UNL     O4   14  -0.225   0.167   0.008
    1UNL     H1   15   0.339   0.137  -0.121
    1UNL     H2   16   0.235   0.209  -0.002
    1UNL     H3   17   0.386   0.146   0.044
    1UNL     H4   18   0.348  -0.128  -0.117
    1UNL     H5   19   0.246  -0.018   0.217
    1UNL     H6   20   0.034   0.135   0.182
    1UNL     H7   21  -0.018  -0.027   0.229
    1UNL     H8   22  -0.008  -0.067  -0.031
    1UNL     H9   23  -0.026   0.212  -0.079
    1UNL    H10   24  -0.186   0.018  -0.209
    1UNL    H11   25  -0.221  -0.135  -0.134
    1UNL    H12   26  -0.346  -0.008  -0.142
    1UNL    H13   27  -0.218  -0.139   0.125
    1UNL    H14   28  -0.365  -0.057   0.109
    1UNL    H15   29  -0.229   0.004   0.225
    1UNL    H16   30  -0.322   0.178  -0.009
   0.00000   0.00000   0.00000   0.00000   0.00000   0.00000   0.00000   0.00000   0.00000
Generated with MDTraj, t= 5.0
 30
    1UNL     C1    1   0.327   0.118   0.004
    1UNL     C2    2   0.265  -0.012   0.026
    1UNL     C3    3   0.290  -0.127  -0.035
    1UNL     C4    4   0.197  -0.228   0.014
    1UNL     O1    5   0.176  -0.337  -0.036
    1UNL     O2    6   0.128  -0.174   0.124
    1UNL     C5    7   0.158  -0.035   0.131
    1UNL     C6    8   0.029   0.062   0.126
    1UNL     C7    9  -0.043   0.030  -0.001
    1UNL     O3   10  -0.001   0.125  -0.088
    1UNL     C8   11  -0.200   0.029   0.010
    1UNL     C9   12  -0.229  -0.059  -0.111
    1UNL    C10   13  -0.228  -0.047   0.139
    1UNL     O4   14  -0.240   0.162   0.003
    1UNL     H1   15   0.415   0.129   0.065
    1UNL     H2   16   0.362   0.123  -0.098
    1UNL     H3   17   0.262   0.203   0.020
    1UNL     H4   18   0.354  -0.135  -0.122
    1UNL     H5   19   0.209  -0.017   0.231
    1UNL     H6   20   0.067   0.170   0.128
    1UNL     H7   21  -0.031   0.056   0.207
    1UNL     H8   22  -0.008  -0.066  -0.030
    1UNL     H9   23  -0.068   0.192  -0.112
    1UNL    H10   24  -0.185  -0.020  -0.205
    1UNL    H11   25  -0.172  -0.153  -0.092
    1UNL    H12   26  -0.329  -0.073  -0.128
    1UNL    H13   27  -0.184  -0.138   0.175
    1UNL    H14   28  -0.333  -0.069   0.130
    1UNL    H15   29  -0.228   0.026   0.228
    1UNL    H16   30  -0.322   0.179   0.046
   0.00000   0.00000   0.00000   0.00000   0.00000   0.00000   0.00000   0.00000   0.00000
Generated with MDTraj, t= 6.0
 30
    1UNL     C1    1   0.376   0.108   0.036
    1UNL     C2    2   0.272   0.003   0.024
    1UNL     C3    3   0.278  -0.116  -0.039
    1UNL     C4    4   0.184  -0.213   0.019
    1UNL     O1    5   0.154  -0.315  -0.037
    1UNL     O2    6   0.123  -0.160   0.134
    1UNL     C5    7   0.167  -0.026   0.135
    1UNL     C6    8   0.049   0.068   0.116
    1UNL     C7    9  -0.037   0.024  -0.012
    1UNL     O3   10  -0.028   0.096  -0.134
    1UNL     C8   11  -0.188   0.015   0.010
    1UNL     C9   12  -0.254  -0.044  -0.110
    1UNL    C10   13  -0.225  -0.072   0.128
    1UNL     O4   14  -0.236   0.153   0.031
    1UNL     H1   15   0.337   0.197   0.087
    1UNL     H2   16   0.449   0.061   0.098
    1UNL     H3   17   0.414   0.124  -0.062
    1UNL     H4   18   0.338  -0.147  -0.123
    1UNL     H5   19   0.203  -0.017   0.242
    1UNL     H6   20   0.089   0.172   0.110
    1UNL     H7   21  -0.004   0.060   0.212
    1UNL     H8   22   0.004  -0.072  -0.033
    1UNL     H9   23  -0.084   0.182  -0.133
    1UNL    H10   24  -0.248   0.018  -0.197
    1UNL    H11   25  -0.195  -0.133  -0.132
    1UNL    H12   26  -0.361  -0.068  -0.099
    1UNL    H13   27  -0.193  -0.177   0.116
    1UNL    H14   28  -0.335  -0.074   0.137
    1UNL    H15   29  -0.178  -0.039   0.221
    1UNL    H16   30  -0.320   0.146   0.071
   0.00000   0.00000   0.00000   0.00000   0.00000   0.00000   0.00000   0.00000   0.00000
Generated with MDTraj, t= 7.0
 30
    1UNL     C1    1   0.366   0.104   0.027
    1UNL     C2    2   0.284  -0.015   0.053
    1UNL     C3    3   0.290  -0.129  -0.015
    1UNL     C4    4   0.179  -0.214   0.021
    1UNL     O1    5   0.148  -0.319  -0.031
    1UNL     O2    6   0.109  -0.145   0.126
    1UNL     C5    7   0.157  -0.010   0.135
    1UNL     C6    8   0.044   0.091   0.095
    1UNL     C7    9  -0.032   0.033  -0.028
    1UNL     O3   10  -0.029   0.098  -0.161
    1UNL     C8   11  -0.183   0.013   0.020
    1UNL     C9   12  -0.267  -0.021  -0.108
    1UNL    C10   13  -0.199  -0.110   0.113
    1UNL     O4   14  -0.224   0.139   0.069
    1UNL     H1   15   0.358   0.138  -0.077
    1UNL     H2   16   0.331   0.182   0.091
    1UNL     H3   17   0.467   0.077   0.049
    1UNL     H4   18   0.363  -0.149  -0.092
    1UNL     H5   19   0.180   0.006   0.240
    1UNL     H6   20   0.082   0.191   0.075
    1UNL     H7   21  -0.025   0.100   0.190
    1UNL     H8   22   0.005  -0.067  -0.042
    1UNL     H9   23  -0.092   0.174  -0.156
    1UNL    H10   24  -0.265   0.058  -0.178
    1UNL    H11   25  -0.256  -0.113  -0.162
    1UNL    H12   26  -0.378  -0.011  -0.077
    1UNL    H13   27  -0.166  -0.199   0.049
    1UNL    H14   28  -0.306  -0.121   0.141
    1UNL    H15   29  -0.127  -0.105   0.189
    1UNL    H16   30  -0.300   0.131   0.125
   0.00000   0.00000   0.00000   0.00000   0.00000   0.00000   0.00000   0.00000   0.00000
Generated with MDTraj, t= 8.0
 30
    1UNL     C1    1   0.386   0.083   0.012
    1UNL     C2    2   0.278  -0.022   0.032
    1UNL     C3    3   0.287  -0.144  -0.014
    1UNL     C4    4   0.177  -0.222   0.041
    1UNL     O1    5   0.165  -0.340   0.028
    1UNL     O2    6   0.093  -0.145   0.112
    1UNL     C5    7   0.156  -0.017   0.123
    1UNL     C6    8   0.058   0.092   0.077
    1UNL     C7    9  -0.042   0.057  -0.044
    1UNL     O3   10  -0.066   0.174  -0.125
    1UNL     C8   11  -0.183   0.014   0.002
    1UNL     C9   12  -0.269  -0.031  -0.119
    1UNL    C10   13  -0.162  -0.117   0.082
    1UNL     O4   14  -0.237   0.127   0.087
    1UNL     H1   15   0.483   0.047  -0.013
    1UNL     H2   16   0.366   0.158  -0.062
    1UNL     H3   17   0.404   0.137   0.104
    1UNL     H4   18   0.382  -0.181  -0.051
    1UNL     H5   19   0.191   0.001   0.223
    1UNL     H6   20   0.107   0.187   0.061
    1UNL     H7   21  -0.019   0.116   0.165
    1UNL     H8   22  -0.005  -0.026  -0.104
    1UNL     H9   23  -0.141   0.224  -0.098
    1UNL    H10   24  -0.283   0.044  -0.195
    1UNL    H11   25  -0.237  -0.121  -0.163
    1UNL    H12   26  -0.372  -0.055  -0.075
    1UNL    H13   27  -0.086  -0.177   0.023
    1UNL    H14   28  -0.256  -0.175   0.093
    1UNL    H15   29  -0.108  -0.096   0.170
    1UNL    H16   30  -0.313   0.091   0.139
   0.00000   0.00000   0.00000   0.00000   0.00000   0.00000   0.00000   0.00000   0.00000
Generated with MDTraj, t= 9.0
 30
    1UNL     C1    1   0.376   0.070  -0.038
    1UNL     C2    2   0.279  -0.029   0.016
    1UNL     C3    3   0.286  -0.159  -0.009
    1UNL     C4    4   0.174  -0.229   0.063
    1UNL     O1    5   0.152  -0.350   0.057
    1UNL     O2    6   0.098  -0.133   0.125
    1UNL     C5    7   0.162  -0.005   0.110
    1UNL     C6    8   0.057   0.104   0.088
    1UNL     C7    9  -0.039   0.080  -0.032
    1UNL     O3   10  -0.078   0.210  -0.075
    1UNL     C8   11  -0.178   0.005  -0.006
    1UNL     C9   12  -0.246  -0.026  -0.143
    1UNL    C10   13  -0.143  -0.131   0.059
    1UNL     O4   14  -0.256   0.102   0.075
    1UNL     H1   15   0.414   0.130   0.039
    1UNL     H2   16   0.453   0.018  -0.092
    1UNL     H3   17   0.322   0.139  -0.105
    1UNL     H4   18   0.359  -0.219  -0.059
    1UNL     H5   19   0.204   0.014   0.208
    1UNL     H6   20   0.098   0.204   0.066
    1UNL     H7   21  -0.001   0.114   0.185
    1UNL     H8   22   0.015   0.029  -0.113
    1UNL     H9   23  -0.138   0.256  -0.006
    1UNL    H10   24  -0.289   0.065  -0.192
    1UNL    H11   25  -0.167  -0.059  -0.207
    1UNL    H12   26  -0.314  -0.112  -0.140
    1UNL    H13   27  -0.061  -0.186   0.012
    1UNL    H14   28  -0.229  -0.198   0.067
    1UNL    H15   29  -0.104  -0.116   0.165
    1UNL    H16   30  -0.343   0.056   0.103
   0.00000   0.00000   0.00000   0.00000   0.00000   0.00000   0.00000   0.00000   0.00000
Generated with MDTraj, t= 10.0
 30
    1UNL     C1    1   0.299   0.093  -0.075
    1UNL     C2    2   0.246  -0.024   0.001
    1UNL     C3    3   0.232  -0.149  -0.038
    1UNL     C4    4   0.164  -0.218   0.077
    1UNL     O1    5   0.131  -0.336   0.069
    1UNL     O2    6   0.123  -0.138   0.178
    1UNL     C5    7   0.172  -0.007   0.132
    1UNL     C6    8   0.055   0.091   0.118
    1UNL     C7    9  -0.009   0.076  -0.021
    1UNL     O3   10  -0.047   0.197  -0.080
    1UNL     C8   11  -0.148  -0.007  -0.013
    1UNL     C9   12  -0.220   0.004  -0.154
    1UNL    C10   13  -0.129  -0.148   0.031
    1UNL     O4   14  -0.230   0.078   0.067
    1UNL     H1   15   0.218   0.137  -0.129
    1UNL     H2   16   0.342   0.156  -0.000
    1UNL     H3   17   0.376   0.061  -0.144
    1UNL     H4   18   0.256  -0.202  -0.130
    1UNL     H5   19   0.240   0.031   0.211
    1UNL     H6   20   0.095   0.194   0.140
    1UNL     H7   21  -0.028   0.071   0.181
    1UNL     H8   22   0.048   0.012  -0.091
    1UNL     H9   23  -0.087   0.251  -0.006
    1UNL    H10   24  -0.207   0.111  -0.187
    1UNL    H11   25  -0.167  -0.061  -0.224
    1UNL    H12   26  -0.318  -0.030  -0.149
    1UNL    H13   27  -0.076  -0.213  -0.034
    1UNL    H14   28  -0.233  -0.181   0.044
    1UNL    H15   29  -0.082  -0.169   0.135
    1UNL    H16   30  -0.328   0.041   0.058
   0.00000   0.00000   0.00000   0.00000   0.00000   0.00000   0.00000   0.00000   0.00000
Generated with MDTraj, t= 11.0
 30
    1UNL     C1    1   0.315   0.084  -0.086
    1UNL     C2    2   0.251  -0.025   0.001
    1UNL     C3    3   0.247  -0.155  -0.028
    1UNL     C4    4   0.166  -0.223   0.076
    1UNL     O1    5   0.119  -0.337   0.061
    1UNL     O2    6   0.136  -0.134   0.173
    1UNL     C5    7   0.179  -0.002   0.130
    1UNL     C6    8   0.053   0.094   0.121
    1UNL     C7    9  -0.023   0.077  -0.011
    1UNL     O3   10  -0.040   0.198  -0.078
    1UNL     C8   11  -0.160  -0.003  -0.019
    1UNL     C9   12  -0.219   0.019  -0.157
    1UNL    C10   13  -0.133  -0.146   0.039
    1UNL     O4   14  -0.256   0.062   0.077
    1UNL     H1   15   0.401   0.053  -0.144
    1UNL     H2   16   0.245   0.133  -0.152
    1UNL     H3   17   0.344   0.167  -0.028
    1UNL     H4   18   0.282  -0.201  -0.118
    1UNL     H5   19   0.252   0.022   0.215
    1UNL     H6   20   0.087   0.202   0.106
    1UNL     H7   21  -0.006   0.084   0.204
    1UNL     H8   22   0.042   0.022  -0.082
    1UNL     H9   23  -0.097   0.253  -0.026
    1UNL    H10   24  -0.208   0.126  -0.184
    1UNL    H11   25  -0.156  -0.041  -0.226
    1UNL    H12   26  -0.313  -0.027  -0.163
    1UNL    H13   27  -0.063  -0.202  -0.022
    1UNL    H14   28  -0.226  -0.201   0.071
    1UNL    H15   29  -0.079  -0.136   0.138
    1UNL    H16   30  -0.350   0.041   0.045
   0.00000   0.00000   0.00000   0.00000   0.00000   0.00000   0.00000   0.00000   0.00000
Generated with MDTraj, t= 12.0
 30
    1UNL     C1    1   0.365   0.066  -0.029
    1UNL     C2    2   0.261  -0.031   0.005
    1UNL     C3    3   0.270  -0.160  -0.024
    1UNL     C4    4   0.166  -0.229   0.055
    1UNL     O1    5   0.152  -0.349   0.053
    1UNL     O2    6   0.100  -0.138   0.134
    1UNL     C5    7   0.160  -0.012   0.110
    1UNL     C6    8   0.052   0.096   0.081
    1UNL     C7    9  -0.034   0.088  -0.039
    1UNL     O3   10  -0.074   0.216  -0.082
    1UNL     C8   11  -0.166   0.008  -0.001
    1UNL     C9   12  -0.238  -0.005  -0.134
    1UNL    C10   13  -0.128  -0.121   0.066
    1UNL     O4   14  -0.250   0.079   0.090
    1UNL     H1   15   0.412   0.107   0.058
    1UNL     H2   16   0.446   0.030  -0.090
    1UNL     H3   17   0.329   0.141  -0.093
    1UNL     H4   18   0.351  -0.205  -0.080
    1UNL     H5   19   0.219   0.018   0.203
    1UNL     H6   20   0.108   0.194   0.072
    1UNL     H7   21  -0.021   0.103   0.153
    1UNL     H8   22   0.009   0.043  -0.133
    1UNL     H9   23  -0.163   0.246  -0.048
    1UNL    H10   24  -0.270   0.094  -0.161
    1UNL    H11   25  -0.185  -0.048  -0.221
    1UNL    H12   26  -0.323  -0.073  -0.117
    1UNL    H13   27  -0.062  -0.168  -0.011
    1UNL    H14   28  -0.221  -0.179   0.091
    1UNL    H15   29  -0.086  -0.106   0.165
    1UNL    H16   30  -0.279   0.025   0.165
   0.00000   0.00000   0.00000   0.00000   0.00000   0.00000   0.00000   0.00000   0.00000
Generated with MDTraj, t= 13.0
 30
    1UNL     C1    1   0.378   0.085  -0.016
    1UNL     C2    2   0.281  -0.015   0.025
    1UNL     C3    3   0.295  -0.146  -0.005
    1UNL     C4    4   0.175  -0.224   0.038
    1UNL     O1    5   0.153  -0.339   0.010
    1UNL     O2    6   0.104  -0.144   0.122
    1UNL     C5    7   0.162  -0.011   0.117
    1UNL     C6    8   0.045   0.086   0.088
    1UNL     C7    9  -0.046   0.059  -0.032
    1UNL     O3   10  -0.060   0.174  -0.115
    1UNL     C8   11  -0.181   0.004   0.003
    1UNL     C9   12  -0.269  -0.002  -0.121
    1UNL    C10   13  -0.181  -0.128   0.087
    1UNL     O4   14  -0.220   0.106   0.098
    1UNL     H1   15   0.339   0.183  -0.000
    1UNL     H2   16   0.472   0.077   0.033
    1UNL     H3   17   0.401   0.059  -0.117
    1UNL     H4   18   0.370  -0.197  -0.064
    1UNL     H5   19   0.195   0.004   0.223
    1UNL     H6   20   0.088   0.185   0.063
    1UNL     H7   21  -0.014   0.091   0.178
    1UNL     H8   22   0.005  -0.019  -0.097
    1UNL     H9   23  -0.112   0.242  -0.058
    1UNL    H10   24  -0.254   0.087  -0.175
    1UNL    H11   25  -0.246  -0.082  -0.190
    1UNL    H12   26  -0.380  -0.022  -0.098
    1UNL    H13   27  -0.151  -0.215   0.018
    1UNL    H14   28  -0.276  -0.144   0.144
    1UNL    H15   29  -0.115  -0.115   0.168
    1UNL    H16   30  -0.255   0.175   0.046
   0.00000   0.00000   0.00000   0.00000   0.00000   0.00000   0.00000   0.00000   0.00000
Generated with MDTraj, t= 14.0
 30
    1UNL     C1    1   0.360   0.109   0.006
    1UNL     C2    2   0.266  -0.008   0.028
    1UNL     C3    3   0.273  -0.123  -0.040
    1UNL     C4    4   0.169  -0.213   0.016
    1UNL     O1    5   0.159  -0.328  -0.018
    1UNL     O2    6   0.102  -0.153   0.122
    1UNL     C5    7   0.157  -0.021   0.134
    1UNL     C6    8   0.041   0.081   0.107
    1UNL     C7    9  -0.032   0.035  -0.025
    1UNL     O3   10  -0.014   0.120  -0.137
    1UNL     C8   11  -0.179   0.013   0.017
    1UNL     C9   12  -0.265  -0.005  -0.100
    1UNL    C10   13  -0.193  -0.111   0.107
    1UNL     O4   14  -0.218   0.125   0.090
    1UNL     H1   15   0.341   0.157  -0.086
    1UNL     H2   16   0.348   0.184   0.079
    1UNL     H3   17   0.458   0.067   0.020
    1UNL     H4   18   0.329  -0.145  -0.128
    1UNL     H5   19   0.200  -0.007   0.233
    1UNL     H6   20   0.080   0.180   0.107
    1UNL     H7   21  -0.037   0.081   0.191
    1UNL     H8   22   0.014  -0.065  -0.058
    1UNL     H9   23  -0.065   0.085  -0.211
    1UNL    H10   24  -0.262   0.083  -0.162
    1UNL    H11   25  -0.232  -0.090  -0.154
    1UNL    H12   26  -0.372  -0.035  -0.075
    1UNL    H13   27  -0.144  -0.209   0.073
    1UNL    H14   28  -0.301  -0.122   0.137
    1UNL    H15   29  -0.164  -0.090   0.209
    1UNL    H16   30  -0.219   0.201   0.035
   0.00000   0.00000   0.00000   0.00000   0.00000   0.00000   0.00000   0.00000   0.00000
Generated with MDTraj, t= 15.0
 30
    1UNL     C1    1   0.360   0.113   0.001
    1UNL     C2    2   0.279  -0.012   0.024
    1UNL     C3    3   0.282  -0.123  -0.046
    1UNL     C4    4   0.185  -0.216   0.013
    1UNL     O1    5   0.149  -0.312  -0.049
    1UNL     O2    6   0.149  -0.170   0.140
    1UNL     C5    7   0.175  -0.032   0.132
    1UNL     C6    8   0.046   0.053   0.119
    1UNL     C7    9  -0.043   0.027  -0.006
    1UNL     O3   10  -0.020   0.119  -0.112
    1UNL     C8   11  -0.198   0.023   0.023
    1UNL     C9   12  -0.260  -0.033  -0.107
    1UNL    C10   13  -0.233  -0.081   0.130
    1UNL     O4   14  -0.249   0.154   0.052
    1UNL     H1   15   0.458   0.091  -0.034
    1UNL     H2   16   0.328   0.176  -0.077
    1UNL     H3   17   0.366   0.166   0.094
    1UNL     H4   18   0.330  -0.128  -0.143
    1UNL     H5   19   0.222  -0.005   0.224
    1UNL     H6   20   0.070   0.155   0.110
    1UNL     H7   21  -0.013   0.056   0.223
    1UNL     H8   22  -0.009  -0.076  -0.051
    1UNL     H9   23   0.063   0.113  -0.158
    1UNL    H10   24  -0.231   0.038  -0.189
    1UNL    H11   25  -0.225  -0.133  -0.126
    1UNL    H12   26  -0.368  -0.044  -0.099
    1UNL    H13   27  -0.199  -0.181   0.099
    1UNL    H14   28  -0.343  -0.089   0.141
    1UNL    H15   29  -0.209  -0.074   0.240
    1UNL    H16   30  -0.217   0.221  -0.012
   0.00000   0.00000   0.00000   0.00000   0.00000   0.00000   0.00000   0.00000   0.00000
Generated with MDTraj, t= 16.0
 30
    1UNL     C1    1   0.327   0.124  -0.001
    1UNL     C2    2   0.253  -0.002   0.018
    1UNL     C3    3   0.261  -0.107  -0.060
    1UNL     C4    4   0.192  -0.220  -0.004
    1UNL     O1    5   0.191  -0.334  -0.050
    1UNL     O2    6   0.135  -0.183   0.116
    1UNL     C5    7   0.164  -0.040   0.135
    1UNL     C6    8   0.039   0.052   0.137
    1UNL     C7    9  -0.042   0.026   0.009
    1UNL     O3   10   0.011   0.101  -0.093
    1UNL     C8   11  -0.197   0.026   0.021
    1UNL     C9   12  -0.256  -0.047  -0.102
    1UNL    C10   13  -0.243  -0.051   0.144
    1UNL     O4   14  -0.233   0.175   0.034
    1UNL     H1   15   0.356   0.168   0.091
    1UNL     H2   16   0.421   0.107  -0.046
    1UNL     H3   17   0.264   0.194  -0.050
    1UNL     H4   18   0.315  -0.114  -0.152
    1UNL     H5   19   0.216  -0.037   0.228
    1UNL     H6   20   0.058   0.158   0.147
    1UNL     H7   21  -0.022   0.024   0.227
    1UNL     H8   22  -0.018  -0.088  -0.007
    1UNL     H9   23   0.088   0.052  -0.132
    1UNL    H10   24  -0.226   0.009  -0.196
    1UNL    H11   25  -0.231  -0.154  -0.100
    1UNL    H12   26  -0.359  -0.042  -0.088
    1UNL    H13   27  -0.206  -0.151   0.134
    1UNL    H14   28  -0.351  -0.064   0.170
    1UNL    H15   29  -0.199  -0.005   0.239
    1UNL    H16   30  -0.153   0.229  -0.001
   0.00000   0.00000   0.00000   0.00000   0.00000   0.00000   0.00000   0.00000   0.00000
Generated with MDTraj, t= 17.0
 30
    1UNL     C1    1   0.313   0.133  -0.005
    1UNL     C2    2   0.251   0.003   0.009
    1UNL     C3    3   0.299  -0.107  -0.045
    1UNL     C4    4   0.222  -0.222   0.004
    1UNL     O1    5   0.226  -0.324  -0.065
    1UNL     O2    6   0.149  -0.183   0.116
    1UNL     C5    7   0.164  -0.043   0.125
    1UNL     C6    8   0.024   0.012   0.138
    1UNL     C7    9  -0.055  -0.007   0.007
    1UNL     O3   10   0.001   0.058  -0.103
    1UNL     C8   11  -0.205   0.043   0.027
    1UNL     C9   12  -0.297  -0.003  -0.092
    1UNL    C10   13  -0.277  -0.020   0.152
    1UNL     O4   14  -0.205   0.180   0.038
    1UNL     H1   15   0.242   0.210   0.001
    1UNL     H2   16   0.382   0.143   0.078
    1UNL     H3   17   0.351   0.132  -0.103
    1UNL     H4   18   0.386  -0.117  -0.108
    1UNL     H5   19   0.215  -0.030   0.220
    1UNL     H6   20   0.031   0.121   0.157
    1UNL     H7   21  -0.022  -0.032   0.218
    1UNL     H8   22  -0.070  -0.120  -0.010
    1UNL     H9   23   0.092   0.022  -0.129
    1UNL    H10   24  -0.249   0.011  -0.191
    1UNL    H11   25  -0.334  -0.108  -0.081
    1UNL    H12   26  -0.382   0.058  -0.091
    1UNL    H13   27  -0.265  -0.127   0.156
    1UNL    H14   28  -0.387  -0.000   0.146
    1UNL    H15   29  -0.249   0.041   0.243
    1UNL    H16   30  -0.127   0.207  -0.007
   0.00000   0.00000   0.00000   0.00000   0.00000   0.00000   0.00000   0.00000   0.00000
Generated with MDTraj, t= 18.0
 30
    1UNL     C1    1   0.296   0.150   0.021
    1UNL     C2    2   0.250   0.006   0.018
    1UNL     C3    3   0.301  -0.094  -0.054
    1UNL     C4    4   0.245  -0.221  -0.008
    1UNL     O1    5   0.274  -0.331  -0.056
    1UNL     O2    6   0.148  -0.194   0.085
    1UNL     C5    7   0.156  -0.054   0.115
    1UNL     C6    8   0.021   0.030   0.116
    1UNL     C7    9  -0.082  -0.030   0.019
    1UNL     O3   10  -0.030  -0.033  -0.113
    1UNL     C8   11  -0.213   0.051   0.039
    1UNL     C9   12  -0.290   0.043  -0.090
    1UNL    C10   13  -0.298   0.008   0.159
    1UNL     O4   14  -0.175   0.194   0.054
    1UNL     H1   15   0.252   0.216  -0.048
    1UNL     H2   16   0.273   0.191   0.119
    1UNL     H3   17   0.398   0.151  -0.002
    1UNL     H4   18   0.391  -0.087  -0.113
    1UNL     H5   19   0.204  -0.039   0.216
    1UNL     H6   20   0.043   0.138   0.098
    1UNL     H7   21  -0.015   0.022   0.211
    1UNL     H8   22  -0.096  -0.135   0.058
    1UNL     H9   23   0.070  -0.057  -0.106
    1UNL    H10   24  -0.234   0.081  -0.172
    1UNL    H11   25  -0.293  -0.067  -0.109
    1UNL    H12   26  -0.395   0.073  -0.099
    1UNL    H13   27  -0.323  -0.099   0.140
    1UNL    H14   28  -0.389   0.072   0.160
    1UNL    H15   29  -0.237   0.037   0.246
    1UNL    H16   30  -0.129   0.222  -0.025
   0.00000   0.00000   0.00000   0.00000   0.00000   0.00000   0.00000   0.00000   0.00000
Generated with MDTraj, t= 19.0
 30
    1UNL     C1    1   0.272   0.153   0.022
    1UNL     C2    2   0.251   0.006   0.027
    1UNL     C3    3   0.319  -0.085  -0.041
    1UNL     C4    4   0.252  -0.215  -0.016
    1UNL     O1    5   0.281  -0.312  -0.084
    1UNL     O2    6   0.153  -0.202   0.074
    1UNL     C5    7   0.152  -0.068   0.112
    1UNL     C6    8   0.017   0.004   0.137
    1UNL     C7    9  -0.097  -0.035   0.040
    1UNL     O3   10  -0.036  -0.045  -0.083
    1UNL     C8   11  -0.213   0.063   0.033
    1UNL     C9   12  -0.284   0.025  -0.098
    1UNL    C10   13  -0.299   0.051   0.163
    1UNL     O4   14  -0.159   0.189   0.028
    1UNL     H1   15   0.289   0.192  -0.074
    1UNL     H2   16   0.190   0.212   0.056
    1UNL     H3   17   0.362   0.181   0.069
    1UNL     H4   18   0.408  -0.064  -0.097
    1UNL     H5   19   0.199  -0.080   0.216
    1UNL     H6   20   0.029   0.110   0.117
    1UNL     H7   21  -0.012  -0.003   0.243
    1UNL     H8   22  -0.142  -0.132   0.066
    1UNL     H9   23   0.015  -0.124  -0.091
    1UNL    H10   24  -0.228   0.039  -0.185
    1UNL    H11   25  -0.335  -0.072  -0.102
    1UNL    H12   26  -0.375   0.092  -0.103
    1UNL    H13   27  -0.368  -0.040   0.156
    1UNL    H14   28  -0.353   0.147   0.153
    1UNL    H15   29  -0.237   0.073   0.251
    1UNL    H16   30  -0.089   0.190  -0.044
   0.00000   0.00000   0.00000   0.00000   0.00000   0.00000   0.00000   0.00000   0.00000
Generated with MDTraj, t= 20.0
 30
    1UNL     C1    1   0.267   0.155   0.060
    1UNL     C2    2   0.225   0.015   0.038
    1UNL     C3    3   0.277  -0.066  -0.055
    1UNL     C4    4   0.236  -0.205  -0.026
    1UNL     O1    5   0.270  -0.295  -0.105
    1UNL     O2    6   0.158  -0.206   0.092
    1UNL     C5    7   0.146  -0.069   0.135
    1UNL     C6    8   0.007  -0.016   0.150
    1UNL     C7    9  -0.083  -0.054   0.030
    1UNL     O3   10  -0.015  -0.040  -0.094
    1UNL     C8   11  -0.200   0.050   0.027
    1UNL     C9   12  -0.303   0.011  -0.072
    1UNL    C10   13  -0.251   0.086   0.167
    1UNL     O4   14  -0.142   0.170  -0.026
    1UNL     H1   15   0.338   0.190  -0.010
    1UNL     H2   16   0.183   0.217   0.056
    1UNL     H3   17   0.319   0.157   0.153
    1UNL     H4   18   0.357  -0.050  -0.126
    1UNL     H5   19   0.201  -0.067   0.235
    1UNL     H6   20   0.012   0.088   0.174
    1UNL     H7   21  -0.047  -0.070   0.240
    1UNL     H8   22  -0.110  -0.158   0.040
    1UNL     H9   23   0.002  -0.123  -0.145
    1UNL    H10   24  -0.249  -0.041  -0.148
    1UNL    H11   25  -0.388  -0.045  -0.037
    1UNL    H12   26  -0.349   0.103  -0.119
    1UNL    H13   27  -0.266  -0.020   0.207
    1UNL    H14   28  -0.339   0.150   0.169
    1UNL    H15   29  -0.179   0.149   0.219
    1UNL    H16   30  -0.073   0.151  -0.102
   0.00000   0.00000   0.00000   0.00000   0.00000   0.00000   0.00000   0.00000   0.00000
Generated with MDTraj, t= 21.0
 30
    1UNL     C1    1   0.271   0.155   0.062
    1UNL     C2    2   0.243   0.009   0.054
    1UNL     C3    3   0.303  -0.072  -0.032
    1UNL     C4    4   0.232  -0.198  -0.030
    1UNL     O1    5   0.241  -0.268  -0.128
    1UNL     O2    6   0.151  -0.209   0.076
    1UNL     C5    7   0.154  -0.077   0.139
    1UNL     C6    8   0.019  -0.007   0.152
    1UNL     C7    9  -0.081  -0.043   0.042
    1UNL     O3   10  -0.020  -0.065  -0.077
    1UNL     C8   11  -0.199   0.053   0.023
    1UNL     C9   12  -0.303  -0.013  -0.075
    1UNL    C10   13  -0.260   0.099   0.159
    1UNL     O4   14  -0.146   0.169  -0.040
    1UNL     H1   15   0.377   0.173   0.057
    1UNL     H2   16   0.222   0.201  -0.017
    1UNL     H3   17   0.245   0.191   0.158
    1UNL     H4   18   0.368  -0.040  -0.110
    1UNL     H5   19   0.201  -0.105   0.234
    1UNL     H6   20   0.037   0.097   0.136
    1UNL     H7   21  -0.023  -0.012   0.264
    1UNL     H8   22  -0.125  -0.133   0.073
    1UNL     H9   23   0.053  -0.136  -0.065
    1UNL    H10   24  -0.255  -0.008  -0.175
    1UNL    H11   25  -0.321  -0.112  -0.048
    1UNL    H12   26  -0.400   0.038  -0.068
    1UNL    H13   27  -0.302   0.016   0.222
    1UNL    H14   28  -0.337   0.174   0.146
    1UNL    H15   29  -0.193   0.162   0.219
    1UNL    H16   30  -0.112   0.145  -0.123
   0.00000   0.00000   0.00000   0.00000   0.00000   0.00000   0.00000   0.00000   0.00000
Generated with MDTraj, t= 22.0
 30
    1UNL     C1    1   0.338   0.130   0.088
    1UNL     C2    2   0.259   0.013   0.048
    1UNL     C3    3   0.304  -0.066  -0.049
    1UNL     C4    4   0.238  -0.199  -0.039
    1UNL     O1    5   0.269  -0.294  -0.109
    1UNL     O2    6   0.148  -0.189   0.072
    1UNL     C5    7   0.151  -0.051   0.124
    1UNL     C6    8   0.011   0.024   0.126
    1UNL     C7    9  -0.094  -0.049   0.040
    1UNL     O3   10  -0.043  -0.079  -0.082
    1UNL     C8   11  -0.214   0.052   0.024
    1UNL     C9   12  -0.316  -0.003  -0.076
    1UNL    C10   13  -0.278   0.069   0.163
    1UNL     O4   14  -0.170   0.182  -0.022
    1UNL     H1   15   0.415   0.102   0.155
    1UNL     H2   16   0.374   0.180   0.004
    1UNL     H3   17   0.285   0.198   0.149
    1UNL     H4   18   0.379  -0.038  -0.121
    1UNL     H5   19   0.195  -0.058   0.221
    1UNL     H6   20   0.031   0.126   0.085
    1UNL     H7   21  -0.028   0.045   0.232
    1UNL     H8   22  -0.131  -0.136   0.086
    1UNL     H9   23   0.048  -0.121  -0.069
    1UNL    H10   24  -0.255  -0.049  -0.160
    1UNL    H11   25  -0.365  -0.078  -0.017
    1UNL    H12   26  -0.389   0.067  -0.108
    1UNL    H13   27  -0.326  -0.018   0.208
    1UNL    H14   28  -0.347   0.155   0.169
    1UNL    H15   29  -0.207   0.107   0.239
    1UNL    H16   30  -0.108   0.157  -0.100
   0.00000   0.00000   0.00000   0.00000   0.00000   0.00000   0.00000   0.00000   0.00000
Generated with MDTraj, t= 23.0
 30
    1UNL     C1    1   0.341   0.135   0.091
    1UNL     C2    2   0.279   0.005   0.054
    1UNL     C3    3   0.342  -0.103   0.007
    1UNL     C4    4   0.239  -0.204  -0.024
    1UNL     O1    5   0.262  -0.292  -0.101
    1UNL     O2    6   0.126  -0.176   0.042
    1UNL     C5    7   0.145  -0.047   0.106
    1UNL     C6    8   0.034   0.055   0.077
    1UNL     C7    9  -0.083  -0.025   0.031
    1UNL     O3   10  -0.057  -0.070  -0.102
    1UNL     C8   11  -0.217   0.047   0.036
    1UNL     C9   12  -0.320  -0.020  -0.057
    1UNL    C10   13  -0.274   0.046   0.177
    1UNL     O4   14  -0.195   0.186  -0.011
    1UNL     H1   15   0.395   0.124   0.180
    1UNL     H2   16   0.404   0.162   0.010
    1UNL     H3   17   0.279   0.217   0.112
    1UNL     H4   18   0.442  -0.109  -0.033
    1UNL     H5   19   0.149  -0.070   0.211
    1UNL     H6   20   0.063   0.133  -0.005
    1UNL     H7   21   0.023   0.120   0.164
    1UNL     H8   22  -0.089  -0.114   0.086
    1UNL     H9   23  -0.019  -0.158  -0.101
    1UNL    H10   24  -0.272  -0.017  -0.160
    1UNL    H11   25  -0.349  -0.120  -0.024
    1UNL    H12   26  -0.409   0.034  -0.062
    1UNL    H13   27  -0.291  -0.057   0.194
    1UNL    H14   28  -0.369   0.105   0.184
    1UNL    H15   29  -0.211   0.088   0.259
    1UNL    H16   30  -0.141   0.174  -0.098
   0.00000   0.00000   0.00000   0.00000   0.00000   0.00000   0.00000   0.00000   0.00000
Generated with MDTraj, t= 24.0
 30
    1UNL     C1    1   0.357   0.111   0.139
    1UNL     C2    2   0.287   0.004   0.064
    1UNL     C3    3   0.348  -0.093  -0.005
    1UNL     C4    4   0.255  -0.205  -0.022
    1UNL     O1    5   0.288  -0.304  -0.085
    1UNL     O2    6   0.135  -0.181   0.050
    1UNL     C5    7   0.146  -0.044   0.090
    1UNL     C6    8   0.035   0.054   0.048
    1UNL     C7    9  -0.094  -0.017   0.004
    1UNL     O3   10  -0.095  -0.046  -0.139
    1UNL     C8   11  -0.227   0.055   0.035
    1UNL     C9   12  -0.341  -0.032  -0.016
    1UNL    C10   13  -0.253   0.060   0.195
    1UNL     O4   14  -0.213   0.180  -0.034
    1UNL     H1   15   0.394   0.069   0.227
    1UNL     H2   16   0.429   0.152   0.072
    1UNL     H3   17   0.292   0.187   0.170
    1UNL     H4   18   0.450  -0.106  -0.036
    1UNL     H5   19   0.137  -0.057   0.199
    1UNL     H6   20   0.082   0.128  -0.032
    1UNL     H7   21   0.009   0.129   0.120
    1UNL     H8   22  -0.099  -0.118   0.039
    1UNL     H9   23  -0.004  -0.088  -0.164
    1UNL    H10   24  -0.361  -0.020  -0.120
    1UNL    H11   25  -0.352  -0.138   0.016
    1UNL    H12   26  -0.430   0.009   0.029
    1UNL    H13   27  -0.240  -0.042   0.224
    1UNL    H14   28  -0.355   0.100   0.213
    1UNL    H15   29  -0.187   0.129   0.250
    1UNL    H16   30  -0.182   0.151  -0.127
   0.00000   0.00000   0.00000   0.00000   0.00000   0.00000   0.00000   0.00000   0.00000
Generated with MDTraj, t= 25.0
 30
    1UNL     C1    1   0.318   0.113   0.158
    1UNL     C2    2   0.276  -0.012   0.091
    1UNL     C3    3   0.352  -0.107   0.037
    1UNL     C4    4   0.265  -0.207  -0.027
    1UNL     O1    5   0.308  -0.295  -0.101
    1UNL     O2    6   0.134  -0.178   0.009
    1UNL     C5    7   0.132  -0.053   0.086
    1UNL     C6    8   0.039   0.052   0.018
    1UNL     C7    9  -0.093  -0.021  -0.004
    1UNL     O3   10  -0.106  -0.053  -0.142
    1UNL     C8   11  -0.218   0.056   0.037
    1UNL     C9   12  -0.336  -0.030   0.031
    1UNL    C10   13  -0.212   0.093   0.186
    1UNL     O4   14  -0.227   0.175  -0.045
    1UNL     H1   15   0.380   0.087   0.239
    1UNL     H2   16   0.360   0.177   0.085
    1UNL     H3   17   0.237   0.162   0.204
    1UNL     H4   18   0.460  -0.098   0.045
    1UNL     H5   19   0.091  -0.081   0.187
    1UNL     H6   20   0.081   0.099  -0.079
    1UNL     H7   21   0.027   0.140   0.074
    1UNL     H8   22  -0.094  -0.121   0.042
    1UNL     H9   23  -0.017  -0.079  -0.176
    1UNL    H10   24  -0.340  -0.083  -0.058
    1UNL    H11   25  -0.338  -0.103   0.115
    1UNL    H12   26  -0.437   0.012   0.043
    1UNL    H13   27  -0.184  -0.001   0.235
    1UNL    H14   28  -0.302   0.142   0.227
    1UNL    H15   29  -0.135   0.170   0.194
    1UNL    H16   30  -0.224   0.143  -0.133
   0.00000   0.00000   0.00000   0.00000   0.00000   0.00000   0.00000   0.00000   0.00000
Generated with MDTraj, t= 26.0
 30
    1UNL     C1    1   0.307   0.095   0.191
    1UNL     C2    2   0.271  -0.015   0.097
    1UNL     C3    3   0.356  -0.092   0.031
    1UNL     C4    4   0.287  -0.196  -0.036
    1UNL     O1    5   0.344  -0.284  -0.097
    1UNL     O2    6   0.153  -0.186  -0.026
    1UNL     C5    7   0.135  -0.078   0.068
    1UNL     C6    8   0.033   0.030   0.019
    1UNL     C7    9  -0.110  -0.026   0.002
    1UNL     O3   10  -0.128  -0.077  -0.130
    1UNL     C8   11  -0.221   0.070   0.040
    1UNL     C9   12  -0.359  -0.002   0.043
    1UNL    C10   13  -0.198   0.131   0.184
    1UNL     O4   14  -0.232   0.171  -0.059
    1UNL     H1   15   0.400   0.083   0.240
    1UNL     H2   16   0.295   0.188   0.147
    1UNL     H3   17   0.243   0.093   0.275
    1UNL     H4   18   0.462  -0.085   0.037
    1UNL     H5   19   0.110  -0.124   0.170
    1UNL     H6   20   0.056   0.065  -0.079
    1UNL     H7   21   0.037   0.115   0.087
    1UNL     H8   22  -0.121  -0.109   0.078
    1UNL     H9   23  -0.065  -0.147  -0.144
    1UNL    H10   24  -0.364  -0.059  -0.046
    1UNL    H11   25  -0.373  -0.068   0.129
    1UNL    H12   26  -0.450   0.064   0.046
    1UNL    H13   27  -0.196   0.056   0.268
    1UNL    H14   28  -0.282   0.198   0.198
    1UNL    H15   29  -0.117   0.203   0.194
    1UNL    H16   30  -0.212   0.117  -0.144
   0.00000   0.00000   0.00000   0.00000   0.00000   0.00000   0.00000   0.00000   0.00000
Generated with MDTraj, t= 27.0
 30
    1UNL     C1    1   0.295   0.085   0.199
    1UNL     C2    2   0.268  -0.032   0.112
    1UNL     C3    3   0.359  -0.090   0.036
    1UNL     C4    4   0.289  -0.186  -0.056
    1UNL     O1    5   0.356  -0.256  -0.133
    1UNL     O2    6   0.151  -0.173  -0.044
    1UNL     C5    7   0.127  -0.095   0.067
    1UNL     C6    8   0.028   0.016   0.041
    1UNL     C7    9  -0.117  -0.037   0.042
    1UNL     O3   10  -0.132  -0.125  -0.071
    1UNL     C8   11  -0.226   0.080   0.039
    1UNL     C9   12  -0.361   0.017   0.010
    1UNL    C10   13  -0.213   0.169   0.162
    1UNL     O4   14  -0.197   0.167  -0.074
    1UNL     H1   15   0.400   0.096   0.209
    1UNL     H2   16   0.250   0.169   0.159
    1UNL     H3   17   0.263   0.065   0.297
    1UNL     H4   18   0.464  -0.062   0.039
    1UNL     H5   19   0.087  -0.167   0.144
    1UNL     H6   20   0.049   0.055  -0.049
    1UNL     H7   21   0.039   0.084   0.130
    1UNL     H8   22  -0.129  -0.091   0.142
    1UNL     H9   23  -0.059  -0.185  -0.078
    1UNL    H10   24  -0.353  -0.022  -0.095
    1UNL    H11   25  -0.369  -0.060   0.080
    1UNL    H12   26  -0.440   0.091   0.027
    1UNL    H13   27  -0.215   0.101   0.252
    1UNL    H14   28  -0.282   0.249   0.178
    1UNL    H15   29  -0.115   0.216   0.169
    1UNL    H16   30  -0.196   0.101  -0.148
   0.00000   0.00000   0.00000   0.00000   0.00000   0.00000   0.00000   0.00000   0.00000
Generated with MDTraj, t= 28.0
 30
    1UNL     C1    1   0.320   0.045   0.228
    1UNL     C2    2   0.272  -0.045   0.119
    1UNL     C3    3   0.340  -0.067   0.007
    1UNL     C4    4   0.269  -0.159  -0.077
    1UNL     O1    5   0.315  -0.213  -0.177
    1UNL     O2    6   0.141  -0.173  -0.023
    1UNL     C5    7   0.134  -0.094   0.094
    1UNL     C6    8   0.027   0.021   0.084
    1UNL     C7    9  -0.119  -0.032   0.071
    1UNL     O3   10  -0.127  -0.133  -0.025
    1UNL     C8   11  -0.216   0.074   0.024
    1UNL     C9   12  -0.351  -0.003  -0.018
    1UNL    C10   13  -0.229   0.192   0.118
    1UNL     O4   14  -0.157   0.131  -0.092
    1UNL     H1   15   0.415   0.010   0.263
    1UNL     H2   16   0.316   0.143   0.189
    1UNL     H3   17   0.256   0.035   0.309
    1UNL     H4   18   0.438  -0.038  -0.025
    1UNL     H5   19   0.110  -0.163   0.176
    1UNL     H6   20   0.049   0.056  -0.012
    1UNL     H7   21   0.049   0.095   0.164
    1UNL     H8   22  -0.150  -0.071   0.176
    1UNL     H9   23  -0.032  -0.160  -0.052
    1UNL    H10   24  -0.323  -0.090  -0.085
    1UNL    H11   25  -0.413  -0.023   0.064
    1UNL    H12   26  -0.396   0.081  -0.069
    1UNL    H13   27  -0.268   0.168   0.217
    1UNL    H14   28  -0.295   0.264   0.073
    1UNL    H15   29  -0.132   0.241   0.138
    1UNL    H16   30  -0.148   0.058  -0.150
   0.00000   0.00000   0.00000   0.00000   0.00000   0.00000   0.00000   0.00000   0.00000
Generated with MDTraj, t= 29.0
 30
    1UNL     C1    1   0.359   0.017   0.244
    1UNL     C2    2   0.276  -0.039   0.126
    1UNL     C3    3   0.332  -0.058   0.009
    1UNL     C4    4   0.238  -0.131  -0.076
    1UNL     O1    5   0.254  -0.148  -0.193
    1UNL     O2    6   0.132  -0.171  -0.000
    1UNL     C5    7   0.135  -0.094   0.119
    1UNL     C6    8   0.028   0.013   0.093
    1UNL     C7    9  -0.112  -0.044   0.073
    1UNL     O3   10  -0.123  -0.154  -0.018
    1UNL     C8   11  -0.203   0.071   0.010
    1UNL     C9   12  -0.348   0.010  -0.025
    1UNL    C10   13  -0.202   0.198   0.091
    1UNL     O4   14  -0.144   0.087  -0.120
    1UNL     H1   15   0.393  -0.060   0.307
    1UNL     H2   16   0.436   0.081   0.207
    1UNL     H3   17   0.305   0.077   0.312
    1UNL     H4   18   0.436  -0.032  -0.004
    1UNL     H5   19   0.100  -0.160   0.197
    1UNL     H6   20   0.064   0.066  -0.001
    1UNL     H7   21   0.032   0.080   0.177
    1UNL     H8   22  -0.150  -0.089   0.175
    1UNL     H9   23  -0.045  -0.214  -0.003
    1UNL    H10   24  -0.320  -0.085  -0.079
    1UNL    H11   25  -0.411  -0.009   0.061
    1UNL    H12   26  -0.406   0.075  -0.084
    1UNL    H13   27  -0.230   0.179   0.193
    1UNL    H14   28  -0.273   0.270   0.045
    1UNL    H15   29  -0.097   0.229   0.092
    1UNL    H16   30  -0.132   0.001  -0.167
   0.00000   0.00000   0.00000   0.00000   0.00000   0.00000   0.00000   0.00000   0.00000
Generated with MDTraj, t= 30.0
 30
    1UNL     C1    1   0.317   0.021   0.251
    1UNL     C2    2   0.272  -0.054   0.130
    1UNL     C3    3   0.322  -0.045   0.008
    1UNL     C4    4   0.236  -0.121  -0.086
    1UNL     O1    5   0.256  -0.126  -0.205
    1UNL     O2    6   0.132  -0.186  -0.014
    1UNL     C5    7   0.139  -0.115   0.116
    1UNL     C6    8   0.038   0.007   0.105
    1UNL     C7    9  -0.107  -0.040   0.084
    1UNL     O3   10  -0.120  -0.162   0.011
    1UNL     C8   11  -0.191   0.067   0.001
    1UNL     C9   12  -0.338   0.022  -0.004
    1UNL    C10   13  -0.187   0.207   0.074
    1UNL     O4   14  -0.143   0.073  -0.133
    1UNL     H1   15   0.274  -0.019   0.336
    1UNL     H2   16   0.422   0.036   0.262
    1UNL     H3   17   0.281   0.120   0.260
    1UNL     H4   18   0.415   0.002  -0.023
    1UNL     H5   19   0.122  -0.180   0.199
    1UNL     H6   20   0.065   0.067   0.006
    1UNL     H7   21   0.042   0.079   0.182
    1UNL     H8   22  -0.165  -0.061   0.183
    1UNL     H9   23  -0.038  -0.182  -0.031
    1UNL    H10   24  -0.350  -0.074  -0.054
    1UNL    H11   25  -0.376   0.014   0.100
    1UNL    H12   26  -0.406   0.091  -0.047
    1UNL    H13   27  -0.235   0.207   0.170
    1UNL    H14   28  -0.250   0.268   0.004
    1UNL    H15   29  -0.083   0.239   0.085
    1UNL    H16   30  -0.136  -0.020  -0.177
   0.00000   0.00000   0.00000   0.00000   0.00000   0.00000   0.00000   0.00000   0.00000
Generated with MDTraj, t= 31.0
 30
    1UNL     C1    1   0.318   0.012   0.245
    1UNL     C2    2   0.273  -0.047   0.120
    1UNL     C3    3   0.346  -0.055   0.007
    1UNL     C4    4   0.264  -0.126  -0.093
    1UNL     O1    5   0.310  -0.162  -0.198
    1UNL     O2    6   0.141  -0.146  -0.047
    1UNL     C5    7   0.132  -0.098   0.093
    1UNL     C6    8   0.024   0.010   0.117
    1UNL     C7    9  -0.127  -0.036   0.094
    1UNL     O3   10  -0.131  -0.162   0.026
    1UNL     C8   11  -0.214   0.063   0.009
    1UNL     C9   12  -0.361   0.036  -0.001
    1UNL    C10   13  -0.204   0.199   0.081
    1UNL     O4   14  -0.147   0.065  -0.125
    1UNL     H1   15   0.243   0.076   0.280
    1UNL     H2   16   0.352  -0.063   0.311
    1UNL     H3   17   0.404   0.071   0.227
    1UNL     H4   18   0.448  -0.030  -0.013
    1UNL     H5   19   0.109  -0.188   0.148
    1UNL     H6   20   0.041   0.108   0.055
    1UNL     H7   21   0.031   0.041   0.218
    1UNL     H8   22  -0.177  -0.054   0.197
    1UNL     H9   23  -0.046  -0.167  -0.026
    1UNL    H10   24  -0.380  -0.060  -0.039
    1UNL    H11   25  -0.411   0.039   0.098
    1UNL    H12   26  -0.419   0.104  -0.062
    1UNL    H13   27  -0.241   0.193   0.184
    1UNL    H14   28  -0.275   0.271   0.036
    1UNL    H15   29  -0.104   0.236   0.094
    1UNL    H16   30  -0.123  -0.021  -0.158
   0.00000   0.00000   0.00000   0.00000   0.00000   0.00000   0.00000   0.00000   0.00000
Generated with MDTraj, t= 32.0
 30
    1UNL     C1    1   0.311   0.009   0.253
    1UNL     C2    2   0.268  -0.057   0.123
    1UNL     C3    3   0.353  -0.096   0.024
    1UNL     C4    4   0.267  -0.141  -0.091
    1UNL     O1    5   0.317  -0.182  -0.196
    1UNL     O2    6   0.134  -0.129  -0.059
    1UNL     C5    7   0.131  -0.077   0.079
    1UNL     C6    8   0.036   0.039   0.080
    1UNL     C7    9  -0.104  -0.015   0.082
    1UNL     O3   10  -0.107  -0.146   0.032
    1UNL     C8   11  -0.214   0.070   0.014
    1UNL     C9   12  -0.352  -0.006   0.006
    1UNL    C10   13  -0.249   0.190   0.100
    1UNL     O4   14  -0.163   0.091  -0.121
    1UNL     H1   15   0.355   0.104   0.230
    1UNL     H2   16   0.230   0.021   0.316
    1UNL     H3   17   0.378  -0.054   0.303
    1UNL     H4   18   0.462  -0.095   0.019
    1UNL     H5   19   0.097  -0.160   0.145
    1UNL     H6   20   0.059   0.103  -0.009
    1UNL     H7   21   0.053   0.104   0.166
    1UNL     H8   22  -0.140  -0.033   0.188
    1UNL     H9   23  -0.028  -0.162  -0.028
    1UNL    H10   24  -0.353  -0.092  -0.052
    1UNL    H11   25  -0.407  -0.031   0.099
    1UNL    H12   26  -0.425   0.059  -0.046
    1UNL    H13   27  -0.262   0.165   0.208
    1UNL    H14   28  -0.337   0.248   0.076
    1UNL    H15   29  -0.167   0.256   0.117
    1UNL    H16   30  -0.168   0.005  -0.158
   0.00000   0.00000   0.00000   0.00000   0.00000   0.00000   0.00000   0.00000   0.00000
Generated with MDTraj, t= 33.0
 30
    1UNL     C1    1   0.325   0.015   0.247
    1UNL     C2    2   0.277  -0.044   0.118
    1UNL     C3    3   0.354  -0.059   0.008
    1UNL     C4    4   0.273  -0.147  -0.083
    1UNL     O1    5   0.331  -0.198  -0.178
    1UNL     O2    6   0.147  -0.159  -0.044
    1UNL     C5    7   0.135  -0.085   0.082
    1UNL     C6    8   0.033   0.024   0.068
    1UNL     C7    9  -0.113  -0.025   0.073
    1UNL     O3   10  -0.123  -0.146  -0.002
    1UNL     C8   11  -0.221   0.074   0.021
    1UNL     C9   12  -0.358   0.008   0.003
    1UNL    C10   13  -0.250   0.183   0.118
    1UNL     O4   14  -0.184   0.112  -0.111
    1UNL     H1   15   0.431  -0.001   0.257
    1UNL     H2   16   0.316   0.118   0.260
    1UNL     H3   17   0.282  -0.033   0.329
    1UNL     H4   18   0.456  -0.029   0.000
    1UNL     H5   19   0.098  -0.153   0.166
    1UNL     H6   20   0.047   0.064  -0.026
    1UNL     H7   21   0.061   0.110   0.138
    1UNL     H8   22  -0.136  -0.055   0.178
    1UNL     H9   23  -0.041  -0.192   0.007
    1UNL    H10   24  -0.359  -0.066  -0.075
    1UNL    H11   25  -0.392  -0.032   0.095
    1UNL    H12   26  -0.424   0.094  -0.022
    1UNL    H13   27  -0.290   0.157   0.219
    1UNL    H14   28  -0.315   0.261   0.085
    1UNL    H15   29  -0.157   0.229   0.148
    1UNL    H16   30  -0.180   0.027  -0.155
   0.00000   0.00000   0.00000   0.00000   0.00000   0.00000   0.00000   0.00000   0.00000
Generated with MDTraj, t= 34.0
 30
    1UNL     C1    1   0.294   0.087   0.207
    1UNL     C2    2   0.267  -0.038   0.130
    1UNL     C3    3   0.338  -0.063   0.019
    1UNL     C4    4   0.267  -0.154  -0.066
    1UNL     O1    5   0.307  -0.188  -0.177
    1UNL     O2    6   0.147  -0.188  -0.015
    1UNL     C5    7   0.133  -0.106   0.102
    1UNL     C6    8   0.028  -0.004   0.077
    1UNL     C7    9  -0.111  -0.052   0.043
    1UNL     O3   10  -0.109  -0.129  -0.079
    1UNL     C8   11  -0.214   0.065   0.028
    1UNL     C9   12  -0.363   0.021   0.025
    1UNL    C10   13  -0.184   0.163   0.142
    1UNL     O4   14  -0.178   0.122  -0.096
    1UNL     H1   15   0.320   0.065   0.308
    1UNL     H2   16   0.373   0.149   0.175
    1UNL     H3   17   0.208   0.144   0.223
    1UNL     H4   18   0.424  -0.014  -0.025
    1UNL     H5   19   0.092  -0.165   0.190
    1UNL     H6   20   0.062   0.061   0.007
    1UNL     H7   21   0.017   0.059   0.174
    1UNL     H8   22  -0.146  -0.117   0.124
    1UNL     H9   23  -0.011  -0.156  -0.092
    1UNL    H10   24  -0.364  -0.062  -0.051
    1UNL    H11   25  -0.380  -0.014   0.121
    1UNL    H12   26  -0.424   0.109   0.004
    1UNL    H13   27  -0.190   0.124   0.244
    1UNL    H14   28  -0.263   0.233   0.134
    1UNL    H15   29  -0.091   0.219   0.125
    1UNL    H16   30  -0.157   0.043  -0.159
   0.00000   0.00000   0.00000   0.00000   0.00000   0.00000   0.00000   0.00000   0.00000
Generated with MDTraj, t= 35.0
 30
    1UNL     C1    1   0.324   0.073   0.206
    1UNL     C2    2   0.276  -0.025   0.110
    1UNL     C3    3   0.340  -0.063   0.002
    1UNL     C4    4   0.261  -0.166  -0.071
    1UNL     O1    5   0.312  -0.235  -0.159
    1UNL     O2    6   0.133  -0.180  -0.014
    1UNL     C5    7   0.141  -0.090   0.108
    1UNL     C6    8   0.032   0.017   0.088
    1UNL     C7    9  -0.105  -0.041   0.047
    1UNL     O3   10  -0.086  -0.094  -0.088
    1UNL     C8   11  -0.221   0.059   0.031
    1UNL     C9   12  -0.355  -0.017   0.000
    1UNL    C10   13  -0.232   0.156   0.156
    1UNL     O4   14  -0.196   0.145  -0.079
    1UNL     H1   15   0.246   0.122   0.254
    1UNL     H2   16   0.393   0.028   0.273
    1UNL     H3   17   0.371   0.151   0.149
    1UNL     H4   18   0.439  -0.031  -0.025
    1UNL     H5   19   0.116  -0.151   0.198
    1UNL     H6   20   0.070   0.080   0.011
    1UNL     H7   21   0.015   0.079   0.179
    1UNL     H8   22  -0.140  -0.117   0.116
    1UNL     H9   23  -0.005  -0.143  -0.086
    1UNL    H10   24  -0.317  -0.094  -0.072
    1UNL    H11   25  -0.381  -0.060   0.094
    1UNL    H12   26  -0.435   0.047  -0.031
    1UNL    H13   27  -0.251   0.105   0.248
    1UNL    H14   28  -0.313   0.223   0.134
    1UNL    H15   29  -0.139   0.213   0.154
    1UNL    H16   30  -0.181   0.094  -0.157
   0.00000   0.00000   0.00000   0.00000   0.00000   0.00000   0.00000   0.00000   0.00000
Generated with MDTraj, t= 36.0
 30
    1UNL     C1    1   0.348   0.075   0.199
    1UNL     C2    2   0.285  -0.021   0.103
    1UNL     C3    3   0.355  -0.090   0.013
    1UNL     C4    4   0.269  -0.180  -0.059
    1UNL     O1    5   0.301  -0.259  -0.142
    1UNL     O2    6   0.141  -0.167  -0.008
    1UNL     C5    7   0.140  -0.059   0.093
    1UNL     C6    8   0.039   0.052   0.044
    1UNL     C7    9  -0.095  -0.026   0.033
    1UNL     O3   10  -0.093  -0.110  -0.084
    1UNL     C8   11  -0.225   0.062   0.034
    1UNL     C9   12  -0.347  -0.020  -0.030
    1UNL    C10   13  -0.267   0.111   0.180
    1UNL     O4   14  -0.221   0.177  -0.047
    1UNL     H1   15   0.327   0.174   0.174
    1UNL     H2   16   0.337   0.042   0.298
    1UNL     H3   17   0.451   0.060   0.172
    1UNL     H4   18   0.461  -0.086  -0.002
    1UNL     H5   19   0.105  -0.100   0.188
    1UNL     H6   20   0.074   0.103  -0.052
    1UNL     H7   21   0.034   0.118   0.126
    1UNL     H8   22  -0.098  -0.099   0.110
    1UNL     H9   23  -0.015  -0.163  -0.083
    1UNL    H10   24  -0.319  -0.023  -0.136
    1UNL    H11   25  -0.370  -0.122   0.008
    1UNL    H12   26  -0.435   0.034  -0.010
    1UNL    H13   27  -0.294   0.027   0.239
    1UNL    H14   28  -0.350   0.182   0.179
    1UNL    H15   29  -0.179   0.161   0.216
    1UNL    H16   30  -0.191   0.155  -0.138
   0.00000   0.00000   0.00000   0.00000   0.00000   0.00000   0.00000   0.00000   0.00000
Generated with MDTraj, t= 37.0
 30
    1UNL     C1    1   0.303   0.124   0.156
    1UNL     C2    2   0.271  -0.009   0.094
    1UNL     C3    3   0.349  -0.079   0.012
    1UNL     C4    4   0.273  -0.191  -0.046
    1UNL     O1    5   0.317  -0.270  -0.122
    1UNL     O2    6   0.141  -0.189  -0.001
    1UNL     C5    7   0.138  -0.076   0.090
    1UNL     C6    8   0.025   0.017   0.064
    1UNL     C7    9  -0.109  -0.053   0.020
    1UNL     O3   10  -0.093  -0.077  -0.121
    1UNL     C8   11  -0.222   0.056   0.041
    1UNL     C9   12  -0.360   0.018  -0.023
    1UNL    C10   13  -0.244   0.087   0.190
    1UNL     O4   14  -0.168   0.173  -0.023
    1UNL     H1   15   0.339   0.193   0.085
    1UNL     H2   16   0.235   0.168   0.224
    1UNL     H3   17   0.390   0.103   0.214
    1UNL     H4   18   0.448  -0.053  -0.023
    1UNL     H5   19   0.128  -0.118   0.189
    1UNL     H6   20   0.064   0.083  -0.024
    1UNL     H7   21   0.013   0.074   0.149
    1UNL     H8   22  -0.134  -0.144   0.065
    1UNL     H9   23  -0.009  -0.132  -0.138
    1UNL    H10   24  -0.356  -0.007  -0.127
    1UNL    H11   25  -0.422  -0.063   0.026
    1UNL    H12   26  -0.428   0.098  -0.001
    1UNL    H13   27  -0.249  -0.006   0.241
    1UNL    H14   28  -0.337   0.140   0.211
    1UNL    H15   29  -0.171   0.149   0.237
    1UNL    H16   30  -0.138   0.142  -0.115
   0.00000   0.00000   0.00000   0.00000   0.00000   0.00000   0.00000   0.00000   0.00000
Generated with MDTraj, t= 38.0
 30
    1UNL     C1    1   0.297   0.116   0.148
    1UNL     C2    2   0.280  -0.012   0.081
    1UNL     C3    3   0.359  -0.085   0.000
    1UNL     C4    4   0.275  -0.201  -0.055
    1UNL     O1    5   0.329  -0.283  -0.128
    1UNL     O2    6   0.144  -0.185  -0.014
    1UNL     C5    7   0.140  -0.083   0.091
    1UNL     C6    8   0.026   0.016   0.092
    1UNL     C7    9  -0.107  -0.037   0.038
    1UNL     O3   10  -0.084  -0.070  -0.096
    1UNL     C8   11  -0.231   0.063   0.043
    1UNL     C9   12  -0.339   0.005  -0.036
    1UNL    C10   13  -0.283   0.099   0.182
    1UNL     O4   14  -0.179   0.187  -0.022
    1UNL     H1   15   0.313   0.203   0.087
    1UNL     H2   16   0.220   0.142   0.214
    1UNL     H3   17   0.384   0.111   0.206
    1UNL     H4   18   0.456  -0.056  -0.033
    1UNL     H5   19   0.132  -0.139   0.184
    1UNL     H6   20   0.041   0.106   0.022
    1UNL     H7   21   0.012   0.054   0.192
    1UNL     H8   22  -0.132  -0.127   0.085
    1UNL     H9   23  -0.003  -0.120  -0.094
    1UNL    H10   24  -0.312  -0.033  -0.129
    1UNL    H11   25  -0.387  -0.084   0.014
    1UNL    H12   26  -0.429   0.066  -0.039
    1UNL    H13   27  -0.319   0.020   0.246
    1UNL    H14   28  -0.371   0.162   0.172
    1UNL    H15   29  -0.223   0.161   0.244
    1UNL    H16   30  -0.140   0.146  -0.108
   0.00000   0.00000   0.00000   0.00000   0.00000   0.00000   0.00000   0.00000   0.00000
Generated with MDTraj, t= 39.0
 30
    1UNL     C1    1   0.355   0.083   0.189
    1UNL     C2    2   0.285  -0.003   0.093
    1UNL     C3    3   0.349  -0.077   0.001
    1UNL     C4    4   0.257  -0.178  -0.052
    1UNL     O1    5   0.270  -0.250  -0.151
    1UNL     O2    6   0.143  -0.175   0.020
    1UNL     C5    7   0.145  -0.058   0.103
    1UNL     C6    8   0.036   0.040   0.064
    1UNL     C7    9  -0.095  -0.034   0.028
    1UNL     O3   10  -0.091  -0.111  -0.092
    1UNL     C8   11  -0.224   0.057   0.029
    1UNL     C9   12  -0.341  -0.006  -0.033
    1UNL    C10   13  -0.269   0.091   0.170
    1UNL     O4   14  -0.188   0.172  -0.043
    1UNL     H1   15   0.313   0.182   0.193
    1UNL     H2   16   0.331   0.036   0.281
    1UNL     H3   17   0.458   0.082   0.176
    1UNL     H4   18   0.451  -0.085  -0.032
    1UNL     H5   19   0.133  -0.090   0.209
    1UNL     H6   20   0.067   0.094  -0.027
    1UNL     H7   21  -0.001   0.123   0.139
    1UNL     H8   22  -0.115  -0.102   0.104
    1UNL     H9   23  -0.013  -0.169  -0.086
    1UNL    H10   24  -0.321  -0.041  -0.130
    1UNL    H11   25  -0.368  -0.100   0.016
    1UNL    H12   26  -0.440   0.042  -0.034
    1UNL    H13   27  -0.290   0.003   0.230
    1UNL    H14   28  -0.358   0.147   0.168
    1UNL    H15   29  -0.198   0.153   0.223
    1UNL    H16   30  -0.166   0.134  -0.129
   0.00000   0.00000   0.00000   0.00000   0.00000   0.00000   0.00000   0.00000   0.00000
Generated with MDTraj, t= 40.0
 30
    1UNL     C1    1   0.340   0.086   0.200
    1UNL     C2    2   0.284  -0.019   0.107
    1UNL     C3    3   0.338  -0.075   0.001
    1UNL     C4    4   0.237  -0.169  -0.056
    1UNL     O1    5   0.251  -0.211  -0.169
    1UNL     O2    6   0.135  -0.187   0.031
    1UNL     C5    7   0.140  -0.071   0.119
    1UNL     C6    8   0.032   0.023   0.077
    1UNL     C7    9  -0.096  -0.038   0.026
    1UNL     O3   10  -0.071  -0.096  -0.102
    1UNL     C8   11  -0.211   0.054   0.022
    1UNL     C9   12  -0.340  -0.027  -0.001
    1UNL    C10   13  -0.228   0.120   0.160
    1UNL     O4   14  -0.185   0.151  -0.077
    1UNL     H1   15   0.261   0.107   0.268
    1UNL     H2   16   0.415   0.031   0.250
    1UNL     H3   17   0.380   0.170   0.149
    1UNL     H4   18   0.438  -0.050  -0.027
    1UNL     H5   19   0.116  -0.109   0.223
    1UNL     H6   20   0.065   0.078  -0.012
    1UNL     H7   21   0.016   0.104   0.162
    1UNL     H8   22  -0.127  -0.122   0.083
    1UNL     H9   23   0.015  -0.146  -0.096
    1UNL    H10   24  -0.345  -0.078  -0.096
    1UNL    H11   25  -0.362  -0.103   0.070
    1UNL    H12   26  -0.432   0.033  -0.004
    1UNL    H13   27  -0.236   0.037   0.229
    1UNL    H14   28  -0.313   0.182   0.159
    1UNL    H15   29  -0.139   0.180   0.172
    1UNL    H16   30  -0.164   0.112  -0.160
   0.00000   0.00000   0.00000   0.00000   0.00000   0.00000   0.00000   0.00000   0.00000
Generated with MDTraj, t= 41.0
 30
    1UNL     C1    1   0.329   0.078   0.197
    1UNL     C2    2   0.276  -0.022   0.102
    1UNL     C3    3   0.335  -0.063  -0.009
    1UNL     C4    4   0.255  -0.167  -0.069
    1UNL     O1    5   0.290  -0.226  -0.171
    1UNL     O2    6   0.137  -0.188   0.007
    1UNL     C5    7   0.139  -0.091   0.113
    1UNL     C6    8   0.025   0.011   0.117
    1UNL     C7    9  -0.098  -0.035   0.045
    1UNL     O3   10  -0.077  -0.088  -0.087
    1UNL     C8   11  -0.217   0.065   0.025
    1UNL     C9   12  -0.338  -0.026   0.007
    1UNL    C10   13  -0.240   0.159   0.151
    1UNL     O4   14  -0.200   0.140  -0.094
    1UNL     H1   15   0.325   0.031   0.290
    1UNL     H2   16   0.434   0.089   0.181
    1UNL     H3   17   0.287   0.177   0.203
    1UNL     H4   18   0.438  -0.049  -0.038
    1UNL     H5   19   0.152  -0.149   0.209
    1UNL     H6   20   0.068   0.104   0.077
    1UNL     H7   21  -0.006   0.029   0.224
    1UNL     H8   22  -0.136  -0.124   0.098
    1UNL     H9   23   0.008  -0.128  -0.095
    1UNL    H10   24  -0.315  -0.098  -0.075
    1UNL    H11   25  -0.366  -0.080   0.090
    1UNL    H12   26  -0.421   0.031  -0.037
    1UNL    H13   27  -0.280   0.093   0.225
    1UNL    H14   28  -0.307   0.238   0.126
    1UNL    H15   29  -0.142   0.197   0.170
    1UNL    H16   30  -0.137   0.096  -0.160
   0.00000   0.00000   0.00000   0.00000   0.00000   0.00000   0.00000   0.00000   0.00000
Generated with MDTraj, t= 42.0
 30
    1UNL     C1    1   0.319   0.082   0.202
    1UNL     C2    2   0.273  -0.012   0.105
    1UNL     C3    3   0.350  -0.077   0.021
    1UNL     C4    4   0.272  -0.171  -0.061
    1UNL     O1    5   0.319  -0.228  -0.156
    1UNL     O2    6   0.148  -0.183  -0.014
    1UNL     C5    7   0.135  -0.077   0.087
    1UNL     C6    8   0.026   0.024   0.045
    1UNL     C7    9  -0.108  -0.044   0.041
    1UNL     O3   10  -0.128  -0.135  -0.066
    1UNL     C8   11  -0.219   0.068   0.032
    1UNL     C9   12  -0.352  -0.001  -0.013
    1UNL    C10   13  -0.219   0.130   0.176
    1UNL     O4   14  -0.188   0.170  -0.068
    1UNL     H1   15   0.393   0.031   0.255
    1UNL     H2   16   0.378   0.157   0.154
    1UNL     H3   17   0.254   0.139   0.266
    1UNL     H4   18   0.458  -0.073   0.022
    1UNL     H5   19   0.103  -0.126   0.181
    1UNL     H6   20   0.042   0.066  -0.059
    1UNL     H7   21   0.031   0.102   0.112
    1UNL     H8   22  -0.124  -0.105   0.133
    1UNL     H9   23  -0.055  -0.202  -0.064
    1UNL    H10   24  -0.335  -0.058  -0.106
    1UNL    H11   25  -0.377  -0.064   0.069
    1UNL    H12   26  -0.423   0.076  -0.035
    1UNL    H13   27  -0.209   0.051   0.246
    1UNL    H14   28  -0.320   0.171   0.184
    1UNL    H15   29  -0.149   0.209   0.186
    1UNL    H16   30  -0.196   0.136  -0.162
   0.00000   0.00000   0.00000   0.00000   0.00000   0.00000   0.00000   0.00000   0.00000
Generated with MDTraj, t= 43.0
 30
    1UNL     C1    1   0.291   0.083   0.195
    1UNL     C2    2   0.272  -0.023   0.093
    1UNL     C3    3   0.362  -0.081   0.013
    1UNL     C4    4   0.296  -0.184  -0.067
    1UNL     O1    5   0.365  -0.257  -0.137
    1UNL     O2    6   0.152  -0.173  -0.047
    1UNL     C5    7   0.138  -0.083   0.066
    1UNL     C6    8   0.027   0.027   0.053
    1UNL     C7    9  -0.119  -0.037   0.057
    1UNL     O3   10  -0.134  -0.119  -0.056
    1UNL     C8   11  -0.232   0.073   0.044
    1UNL     C9   12  -0.364  -0.003  -0.008
    1UNL    C10   13  -0.241   0.144   0.178
    1UNL     O4   14  -0.187   0.170  -0.058
    1UNL     H1   15   0.396   0.088   0.214
    1UNL     H2   16   0.258   0.177   0.159
    1UNL     H3   17   0.231   0.061   0.281
    1UNL     H4   18   0.466  -0.057   0.005
    1UNL     H5   19   0.109  -0.143   0.152
    1UNL     H6   20   0.047   0.088  -0.038
    1UNL     H7   21   0.023   0.094   0.130
    1UNL     H8   22  -0.136  -0.088   0.158
    1UNL     H9   23  -0.042  -0.135  -0.088
    1UNL    H10   24  -0.337  -0.048  -0.105
    1UNL    H11   25  -0.374  -0.080   0.068
    1UNL    H12   26  -0.439   0.068  -0.022
    1UNL    H13   27  -0.296   0.098   0.256
    1UNL    H14   28  -0.277   0.245   0.158
    1UNL    H15   29  -0.145   0.169   0.216
    1UNL    H16   30  -0.197   0.125  -0.144
   0.00000   0.00000   0.00000   0.00000   0.00000   0.00000   0.00000   0.00000   0.00000
Generated with MDTraj, t= 44.0
 30
    1UNL     C1    1   0.307   0.089   0.200
    1UNL     C2    2   0.272  -0.017   0.100
    1UNL     C3    3   0.356  -0.089   0.025
    1UNL     C4    4   0.276  -0.178  -0.059
    1UNL     O1    5   0.321  -0.243  -0.150
    1UNL     O2    6   0.146  -0.169  -0.030
    1UNL     C5    7   0.137  -0.082   0.082
    1UNL     C6    8   0.027   0.026   0.074
    1UNL     C7    9  -0.107  -0.042   0.043
    1UNL     O3   10  -0.110  -0.097  -0.084
    1UNL     C8   11  -0.219   0.063   0.040
    1UNL     C9   12  -0.359  -0.007   0.007
    1UNL    C10   13  -0.216   0.147   0.165
    1UNL     O4   14  -0.198   0.138  -0.079
    1UNL     H1   15   0.411   0.118   0.188
    1UNL     H2   16   0.243   0.171   0.182
    1UNL     H3   17   0.283   0.047   0.293
    1UNL     H4   18   0.461  -0.065   0.014
    1UNL     H5   19   0.111  -0.139   0.170
    1UNL     H6   20   0.034   0.101  -0.001
    1UNL     H7   21   0.026   0.080   0.169
    1UNL     H8   22  -0.140  -0.113   0.128
    1UNL     H9   23  -0.043  -0.168  -0.089
    1UNL    H10   24  -0.348  -0.057  -0.087
    1UNL    H11   25  -0.378  -0.077   0.091
    1UNL    H12   26  -0.421   0.078  -0.005
    1UNL    H13   27  -0.215   0.086   0.251
    1UNL    H14   28  -0.299   0.215   0.178
    1UNL    H15   29  -0.135   0.217   0.175
    1UNL    H16   30  -0.219   0.081  -0.150
   0.00000   0.00000   0.00000   0.00000   0.00000   0.00000   0.00000   0.00000   0.00000
Generated with MDTraj, t= 45.0
 30
    1UNL     C1    1   0.340   0.058   0.223
    1UNL     C2    2   0.285  -0.017   0.110
    1UNL     C3    3   0.349  -0.075   0.008
    1UNL     C4    4   0.258  -0.170  -0.061
    1UNL     O1    5   0.279  -0.222  -0.172
    1UNL     O2    6   0.145  -0.182   0.015
    1UNL     C5    7   0.141  -0.074   0.106
    1UNL     C6    8   0.038   0.031   0.069
    1UNL     C7    9  -0.099  -0.031   0.036
    1UNL     O3   10  -0.093  -0.091  -0.092
    1UNL     C8   11  -0.223   0.060   0.027
    1UNL     C9   12  -0.350  -0.026   0.014
    1UNL    C10   13  -0.222   0.152   0.150
    1UNL     O4   14  -0.220   0.131  -0.100
    1UNL     H1   15   0.448   0.064   0.236
    1UNL     H2   16   0.301   0.157   0.216
    1UNL     H3   17   0.298   0.017   0.311
    1UNL     H4   18   0.453  -0.061  -0.013
    1UNL     H5   19   0.129  -0.116   0.207
    1UNL     H6   20   0.076   0.080  -0.012
    1UNL     H7   21   0.028   0.107   0.153
    1UNL     H8   22  -0.124  -0.108   0.121
    1UNL     H9   23   0.001  -0.124  -0.107
    1UNL    H10   24  -0.334  -0.088  -0.068
    1UNL    H11   25  -0.371  -0.086   0.107
    1UNL    H12   26  -0.420   0.051  -0.012
    1UNL    H13   27  -0.188   0.095   0.235
    1UNL    H14   28  -0.313   0.201   0.176
    1UNL    H15   29  -0.152   0.233   0.140
    1UNL    H16   30  -0.190   0.064  -0.173
   0.00000   0.00000   0.00000   0.00000   0.00000   0.00000   0.00000   0.00000   0.00000
Generated with MDTraj, t= 46.0
 30
    1UNL     C1    1   0.332   0.065   0.213
    1UNL     C2    2   0.289  -0.025   0.107
    1UNL     C3    3   0.345  -0.069  -0.004
    1UNL     C4    4   0.253  -0.165  -0.067
    1UNL     O1    5   0.275  -0.210  -0.179
    1UNL     O2    6   0.150  -0.195   0.020
    1UNL     C5    7   0.145  -0.083   0.113
    1UNL     C6    8   0.040   0.022   0.077
    1UNL     C7    9  -0.103  -0.027   0.048
    1UNL     O3   10  -0.093  -0.102  -0.070
    1UNL     C8   11  -0.226   0.065   0.021
    1UNL     C9   12  -0.351  -0.028  -0.002
    1UNL    C10   13  -0.239   0.157   0.146
    1UNL     O4   14  -0.193   0.141  -0.093
    1UNL     H1   15   0.430   0.056   0.255
    1UNL     H2   16   0.325   0.165   0.175
    1UNL     H3   17   0.263   0.061   0.295
    1UNL     H4   18   0.446  -0.048  -0.037
    1UNL     H5   19   0.139  -0.125   0.217
    1UNL     H6   20   0.069   0.072  -0.009
    1UNL     H7   21   0.051   0.097   0.161
    1UNL     H8   22  -0.136  -0.108   0.124
    1UNL     H9   23  -0.023  -0.165  -0.063
    1UNL    H10   24  -0.332  -0.099  -0.077
    1UNL    H11   25  -0.368  -0.087   0.091
    1UNL    H12   26  -0.437   0.028  -0.036
    1UNL    H13   27  -0.271   0.098   0.231
    1UNL    H14   28  -0.304   0.235   0.119
    1UNL    H15   29  -0.141   0.195   0.168
    1UNL    H16   30  -0.141   0.086  -0.152
   0.00000   0.00000   0.00000   0.00000   0.00000   0.00000   0.00000   0.00000   0.00000
Generated with MDTraj, t= 47.0
 30
    1UNL     C1    1   0.316   0.099   0.191
    1UNL     C2    2   0.267  -0.008   0.094
    1UNL     C3    3   0.345  -0.064   0.005
    1UNL     C4    4   0.269  -0.164  -0.067
    1UNL     O1    5   0.311  -0.230  -0.158
    1UNL     O2    6   0.144  -0.180  -0.019
    1UNL     C5    7   0.136  -0.083   0.092
    1UNL     C6    8   0.018   0.014   0.081
    1UNL     C7    9  -0.115  -0.054   0.059
    1UNL     O3   10  -0.129  -0.138  -0.057
    1UNL     C8   11  -0.214   0.062   0.035
    1UNL     C9   12  -0.343   0.019  -0.024
    1UNL    C10   13  -0.234   0.140   0.167
    1UNL     O4   14  -0.150   0.137  -0.066
    1UNL     H1   15   0.406   0.072   0.239
    1UNL     H2   16   0.342   0.182   0.126
    1UNL     H3   17   0.239   0.128   0.262
    1UNL     H4   18   0.449  -0.044  -0.011
    1UNL     H5   19   0.122  -0.149   0.183
    1UNL     H6   20   0.052   0.089   0.004
    1UNL     H7   21   0.012   0.073   0.173
    1UNL     H8   22  -0.152  -0.122   0.144
    1UNL     H9   23  -0.041  -0.176  -0.073
    1UNL    H10   24  -0.333  -0.032  -0.119
    1UNL    H11   25  -0.388  -0.054   0.037
    1UNL    H12   26  -0.412   0.100  -0.046
    1UNL    H13   27  -0.261   0.074   0.250
    1UNL    H14   28  -0.307   0.207   0.133
    1UNL    H15   29  -0.141   0.189   0.192
    1UNL    H16   30  -0.115   0.074  -0.127
   0.00000   0.00000   0.00000   0.00000   0.00000   0.00000   0.00000   0.00000   0.00000
Generated with MDTraj, t= 48.0
 30
    1UNL     C1    1   0.308   0.092   0.187
    1UNL     C2    2   0.269  -0.023   0.097
    1UNL     C3    3   0.355  -0.077   0.013
    1UNL     C4    4   0.287  -0.180  -0.068
    1UNL     O1    5   0.349  -0.240  -0.153
    1UNL     O2    6   0.148  -0.185  -0.024
    1UNL     C5    7   0.139  -0.091   0.085
    1UNL     C6    8   0.024   0.011   0.062
    1UNL     C7    9  -0.120  -0.040   0.055
    1UNL     O3   10  -0.131  -0.120  -0.061
    1UNL     C8   11  -0.222   0.076   0.040
    1UNL     C9   12  -0.345   0.004  -0.003
    1UNL    C10   13  -0.248   0.152   0.172
    1UNL     O4   14  -0.183   0.162  -0.068
    1UNL     H1   15   0.413   0.097   0.200
    1UNL     H2   16   0.284   0.178   0.125
    1UNL     H3   17   0.254   0.097   0.283
    1UNL     H4   18   0.455  -0.048  -0.006
    1UNL     H5   19   0.117  -0.149   0.178
    1UNL     H6   20   0.045   0.060  -0.044
    1UNL     H7   21   0.016   0.095   0.129
    1UNL     H8   22  -0.142  -0.106   0.146
    1UNL     H9   23  -0.045  -0.176  -0.058
    1UNL    H10   24  -0.338  -0.057  -0.096
    1UNL    H11   25  -0.372  -0.071   0.062
    1UNL    H12   26  -0.430   0.068  -0.019
    1UNL    H13   27  -0.253   0.082   0.255
    1UNL    H14   28  -0.337   0.211   0.159
    1UNL    H15   29  -0.162   0.210   0.199
    1UNL    H16   30  -0.179   0.107  -0.147
   0.00000   0.00000   0.00000   0.00000   0.00000   0.00000   0.00000   0.00000   0.00000
Generated with MDTraj, t= 49.0
 30
    1UNL     C1    1   0.327   0.068   0.213
    1UNL     C2    2   0.276  -0.014   0.099
    1UNL     C3    3   0.354  -0.085   0.019
    1UNL     C4    4   0.268  -0.180  -0.054
    1UNL     O1    5   0.318  -0.255  -0.133
    1UNL     O2    6   0.139  -0.166  -0.021
    1UNL     C5    7   0.135  -0.068   0.079
    1UNL     C6    8   0.040   0.046   0.045
    1UNL     C7    9  -0.101  -0.024   0.023
    1UNL     O3   10  -0.114  -0.103  -0.093
    1UNL     C8   11  -0.226   0.063   0.033
    1UNL     C9   12  -0.350  -0.037   0.030
    1UNL    C10   13  -0.221   0.145   0.160
    1UNL     O4   14  -0.213   0.156  -0.075
    1UNL     H1   15   0.411   0.125   0.177
    1UNL     H2   16   0.262   0.150   0.237
    1UNL     H3   17   0.360   0.018   0.305
    1UNL     H4   18   0.461  -0.073   0.004
    1UNL     H5   19   0.093  -0.117   0.168
    1UNL     H6   20   0.059   0.101  -0.057
    1UNL     H7   21   0.031   0.118   0.124
    1UNL     H8   22  -0.101  -0.095   0.109
    1UNL     H9   23  -0.036  -0.155  -0.094
    1UNL    H10   24  -0.346  -0.111  -0.052
    1UNL    H11   25  -0.365  -0.099   0.113
    1UNL    H12   26  -0.434   0.025   0.010
    1UNL    H13   27  -0.221   0.083   0.247
    1UNL    H14   28  -0.299   0.219   0.175
    1UNL    H15   29  -0.127   0.193   0.179
    1UNL    H16   30  -0.238   0.109  -0.158
   0.00000   0.00000   0.00000   0.00000   0.00000   0.00000   0.00000   0.00000   0.00000
Generated with MDTraj, t= 50.0
 30
    1UNL     C1    1   0.336   0.080   0.194
    1UNL     C2    2   0.281  -0.029   0.111
    1UNL     C3    3   0.360  -0.095   0.024
    1UNL     C4    4   0.275  -0.184  -0.055
    1UNL     O1    5   0.311  -0.258  -0.147
    1UNL     O2    6   0.142  -0.170  -0.012
    1UNL     C5    7   0.138  -0.076   0.094
    1UNL     C6    8   0.025   0.033   0.079
    1UNL     C7    9  -0.103  -0.032   0.028
    1UNL     O3   10  -0.085  -0.072  -0.106
    1UNL     C8   11  -0.227   0.063   0.034
    1UNL     C9   12  -0.353  -0.027   0.032
    1UNL    C10   13  -0.222   0.155   0.153
    1UNL     O4   14  -0.248   0.145  -0.087
    1UNL     H1   15   0.323   0.170   0.130
    1UNL     H2   16   0.280   0.101   0.282
    1UNL     H3   17   0.441   0.078   0.222
    1UNL     H4   18   0.459  -0.071  -0.006
    1UNL     H5   19   0.123  -0.130   0.186
    1UNL     H6   20   0.049   0.111   0.005
    1UNL     H7   21   0.008   0.077   0.180
    1UNL     H8   22  -0.112  -0.123   0.088
    1UNL     H9   23   0.011  -0.099  -0.128
    1UNL    H10   24  -0.340  -0.093  -0.052
    1UNL    H11   25  -0.359  -0.094   0.118
    1UNL    H12   26  -0.437   0.035   0.017
    1UNL    H13   27  -0.217   0.104   0.244
    1UNL    H14   28  -0.309   0.220   0.167
    1UNL    H15   29  -0.132   0.215   0.163
    1UNL    H16   30  -0.211   0.091  -0.166
   0.00000   0.00000   0.00000   0.00000   0.00000   0.00000   0.00000   0.00000   0.00000
Generated with MDTraj, t= 51.0
 30
    1UNL     C1    1   0.306   0.091   0.203
    1UNL     C2    2   0.277  -0.013   0.098
    1UNL     C3    3   0.347  -0.078   0.004
    1UNL     C4    4   0.261  -0.180  -0.063
    1UNL     O1    5   0.308  -0.248  -0.154
    1UNL     O2    6   0.143  -0.186  -0.002
    1UNL     C5    7   0.147  -0.082   0.097
    1UNL     C6    8   0.036   0.022   0.064
    1UNL     C7    9  -0.101  -0.036   0.040
    1UNL     O3   10  -0.097  -0.110  -0.079
    1UNL     C8   11  -0.219   0.066   0.032
    1UNL     C9   12  -0.350  -0.009  -0.002
    1UNL    C10   13  -0.224   0.150   0.169
    1UNL     O4   14  -0.207   0.156  -0.079
    1UNL     H1   15   0.248   0.181   0.170
    1UNL     H2   16   0.283   0.057   0.303
    1UNL     H3   17   0.407   0.122   0.191
    1UNL     H4   18   0.452  -0.052  -0.007
    1UNL     H5   19   0.132  -0.139   0.188
    1UNL     H6   20   0.071   0.066  -0.023
    1UNL     H7   21   0.039   0.102   0.147
    1UNL     H8   22  -0.121  -0.103   0.120
    1UNL     H9   23  -0.042  -0.189  -0.079
    1UNL    H10   24  -0.333  -0.070  -0.085
    1UNL    H11   25  -0.366  -0.074   0.087
    1UNL    H12   26  -0.424   0.065  -0.020
    1UNL    H13   27  -0.206   0.110   0.266
    1UNL    H14   28  -0.325   0.192   0.172
    1UNL    H15   29  -0.150   0.230   0.167
    1UNL    H16   30  -0.165   0.113  -0.151
   0.00000   0.00000   0.00000   0.00000   0.00000   0.00000   0.00000   0.00000   0.00000
Generated with MDTraj, t= 52.0
 30
    1UNL     C1    1   0.318   0.087   0.194
    1UNL     C2    2   0.278  -0.014   0.091
    1UNL     C3    3   0.360  -0.067  -0.002
    1UNL     C4    4   0.279  -0.166  -0.065
    1UNL     O1    5   0.306  -0.238  -0.163
    1UNL     O2    6   0.153  -0.180  -0.002
    1UNL     C5    7   0.141  -0.077   0.092
    1UNL     C6    8   0.026   0.023   0.056
    1UNL     C7    9  -0.116  -0.044   0.058
    1UNL     O3   10  -0.131  -0.151  -0.037
    1UNL     C8   11  -0.223   0.067   0.032
    1UNL     C9   12  -0.358   0.015  -0.039
    1UNL    C10   13  -0.253   0.143   0.167
    1UNL     O4   14  -0.155   0.154  -0.060
    1UNL     H1   15   0.273   0.184   0.169
    1UNL     H2   16   0.291   0.058   0.296
    1UNL     H3   17   0.425   0.105   0.193
    1UNL     H4   18   0.466  -0.058  -0.017
    1UNL     H5   19   0.128  -0.132   0.187
    1UNL     H6   20   0.051   0.073  -0.030
    1UNL     H7   21   0.040   0.106   0.133
    1UNL     H8   22  -0.132  -0.092   0.150
    1UNL     H9   23  -0.042  -0.195  -0.058
    1UNL    H10   24  -0.330  -0.041  -0.122
    1UNL    H11   25  -0.400  -0.064   0.027
    1UNL    H12   26  -0.427   0.091  -0.071
    1UNL    H13   27  -0.322   0.090   0.232
    1UNL    H14   28  -0.297   0.239   0.142
    1UNL    H15   29  -0.158   0.143   0.220
    1UNL    H16   30  -0.144   0.106  -0.141
   0.00000   0.00000   0.00000   0.00000   0.00000   0.00000   0.00000   0.00000   0.00000
Generated with MDTraj, t= 53.0
 30
    1UNL     C1    1   0.310   0.094   0.190
    1UNL     C2    2   0.279  -0.019   0.098
    1UNL     C3    3   0.349  -0.075   0.003
    1UNL     C4    4   0.267  -0.176  -0.073
    1UNL     O1    5   0.305  -0.234  -0.174
    1UNL     O2    6   0.143  -0.174  -0.017
    1UNL     C5    7   0.146  -0.085   0.098
    1UNL     C6    8   0.027   0.014   0.092
    1UNL     C7    9  -0.115  -0.046   0.073
    1UNL     O3   10  -0.117  -0.127  -0.041
    1UNL     C8   11  -0.216   0.066   0.032
    1UNL     C9   12  -0.340  -0.001  -0.025
    1UNL    C10   13  -0.262   0.152   0.147
    1UNL     O4   14  -0.152   0.148  -0.069
    1UNL     H1   15   0.296   0.190   0.145
    1UNL     H2   16   0.251   0.104   0.284
    1UNL     H3   17   0.414   0.096   0.224
    1UNL     H4   18   0.448  -0.040  -0.023
    1UNL     H5   19   0.129  -0.154   0.185
    1UNL     H6   20   0.042   0.077   0.006
    1UNL     H7   21   0.029   0.098   0.164
    1UNL     H8   22  -0.144  -0.103   0.156
    1UNL     H9   23  -0.026  -0.165  -0.061
    1UNL    H10   24  -0.323  -0.043  -0.122
    1UNL    H11   25  -0.383  -0.080   0.031
    1UNL    H12   26  -0.408   0.080  -0.051
    1UNL    H13   27  -0.272   0.084   0.233
    1UNL    H14   28  -0.358   0.192   0.122
    1UNL    H15   29  -0.180   0.221   0.166
    1UNL    H16   30  -0.130   0.093  -0.146
   0.00000   0.00000   0.00000   0.00000   0.00000   0.00000   0.00000   0.00000   0.00000
Generated with MDTraj, t= 54.0
 30
    1UNL     C1    1   0.331   0.075   0.213
    1UNL     C2    2   0.277  -0.020   0.106
    1UNL     C3    3   0.340  -0.052  -0.004
    1UNL     C4    4   0.267  -0.169  -0.062
    1UNL     O1    5   0.299  -0.223  -0.163
    1UNL     O2    6   0.149  -0.193   0.009
    1UNL     C5    7   0.142  -0.088   0.103
    1UNL     C6    8   0.035   0.014   0.059
    1UNL     C7    9  -0.107  -0.040   0.037
    1UNL     O3   10  -0.111  -0.120  -0.075
    1UNL     C8   11  -0.221   0.072   0.030
    1UNL     C9   12  -0.347  -0.011   0.014
    1UNL    C10   13  -0.237   0.166   0.154
    1UNL     O4   14  -0.187   0.139  -0.091
    1UNL     H1   15   0.384   0.163   0.182
    1UNL     H2   16   0.243   0.111   0.271
    1UNL     H3   17   0.395   0.020   0.286
    1UNL     H4   18   0.433  -0.019  -0.046
    1UNL     H5   19   0.108  -0.136   0.200
    1UNL     H6   20   0.074   0.075  -0.026
    1UNL     H7   21   0.032   0.098   0.122
    1UNL     H8   22  -0.126  -0.100   0.120
    1UNL     H9   23  -0.037  -0.180  -0.074
    1UNL    H10   24  -0.355  -0.085  -0.067
    1UNL    H11   25  -0.365  -0.067   0.098
    1UNL    H12   26  -0.430   0.054  -0.010
    1UNL    H13   27  -0.311   0.117   0.218
    1UNL    H14   28  -0.282   0.258   0.124
    1UNL    H15   29  -0.149   0.176   0.215
    1UNL    H16   30  -0.169   0.069  -0.165
   0.00000   0.00000   0.00000   0.00000   0.00000   0.00000   0.00000   0.00000   0.00000
Generated with MDTraj, t= 55.0
 30
    1UNL     C1    1   0.340   0.071   0.212
    1UNL     C2    2   0.279  -0.029   0.116
    1UNL     C3    3   0.355  -0.093   0.031
    1UNL     C4    4   0.269  -0.169  -0.063
    1UNL     O1    5   0.314  -0.223  -0.157
    1UNL     O2    6   0.138  -0.152  -0.026
    1UNL     C5    7   0.135  -0.072   0.094
    1UNL     C6    8   0.031   0.033   0.068
    1UNL     C7    9  -0.106  -0.039   0.035
    1UNL     O3   10  -0.113  -0.117  -0.081
    1UNL     C8   11  -0.224   0.064   0.030
    1UNL     C9   12  -0.356  -0.015   0.038
    1UNL    C10   13  -0.221   0.161   0.143
    1UNL     O4   14  -0.213   0.126  -0.098
    1UNL     H1   15   0.429   0.124   0.175
    1UNL     H2   16   0.256   0.138   0.229
    1UNL     H3   17   0.360   0.015   0.307
    1UNL     H4   18   0.461  -0.103   0.021
    1UNL     H5   19   0.098  -0.142   0.174
    1UNL     H6   20   0.064   0.091  -0.024
    1UNL     H7   21   0.042   0.113   0.133
    1UNL     H8   22  -0.122  -0.104   0.117
    1UNL     H9   23  -0.029  -0.169  -0.092
    1UNL    H10   24  -0.353  -0.109  -0.018
    1UNL    H11   25  -0.367  -0.047   0.137
    1UNL    H12   26  -0.442   0.031  -0.006
    1UNL    H13   27  -0.176   0.122   0.234
    1UNL    H14   28  -0.321   0.193   0.170
    1UNL    H15   29  -0.171   0.252   0.109
    1UNL    H16   30  -0.170   0.073  -0.169
   0.00000   0.00000   0.00000   0.00000   0.00000   0.00000   0.00000   0.00000   0.00000
Generated with MDTraj, t= 56.0
 30
    1UNL     C1    1   0.306   0.064   0.217
    1UNL     C2    2   0.272  -0.030   0.105
    1UNL     C3    3   0.357  -0.063   0.008
    1UNL     C4    4   0.294  -0.173  -0.073
    1UNL     O1    5   0.351  -0.254  -0.142
    1UNL     O2    6   0.156  -0.170  -0.045
    1UNL     C5    7   0.135  -0.083   0.069
    1UNL     C6    8   0.028   0.025   0.057
    1UNL     C7    9  -0.114  -0.033   0.051
    1UNL     O3   10  -0.119  -0.119  -0.057
    1UNL     C8   11  -0.226   0.074   0.036
    1UNL     C9   12  -0.359  -0.008   0.038
    1UNL    C10   13  -0.235   0.174   0.151
    1UNL     O4   14  -0.217   0.142  -0.087
    1UNL     H1   15   0.401   0.124   0.214
    1UNL     H2   16   0.228   0.139   0.223
    1UNL     H3   17   0.303   0.012   0.314
    1UNL     H4   18   0.462  -0.042   0.018
    1UNL     H5   19   0.103  -0.159   0.142
    1UNL     H6   20   0.051   0.084  -0.038
    1UNL     H7   21   0.034   0.106   0.126
    1UNL     H8   22  -0.124  -0.085   0.145
    1UNL     H9   23  -0.027  -0.155  -0.073
    1UNL    H10   24  -0.363  -0.070  -0.051
    1UNL    H11   25  -0.358  -0.076   0.124
    1UNL    H12   26  -0.442   0.053   0.023
    1UNL    H13   27  -0.280   0.132   0.240
    1UNL    H14   28  -0.300   0.257   0.120
    1UNL    H15   29  -0.139   0.225   0.164
    1UNL    H16   30  -0.196   0.097  -0.172
   0.00000   0.00000   0.00000   0.00000   0.00000   0.00000   0.00000   0.00000   0.00000
Generated with MDTraj, t= 57.0
 30
    1UNL     C1    1   0.293   0.089   0.202
    1UNL     C2    2   0.273  -0.025   0.109
    1UNL     C3    3   0.359  -0.079   0.021
    1UNL     C4    4   0.282  -0.168  -0.062
    1UNL     O1    5   0.333  -0.224  -0.157
    1UNL     O2    6   0.150  -0.178  -0.024
    1UNL     C5    7   0.137  -0.087   0.075
    1UNL     C6    8   0.032   0.015   0.042
    1UNL     C7    9  -0.109  -0.045   0.042
    1UNL     O3   10  -0.123  -0.141  -0.059
    1UNL     C8   11  -0.224   0.067   0.038
    1UNL     C9   12  -0.370   0.013   0.018
    1UNL    C10   13  -0.215   0.161   0.165
    1UNL     O4   14  -0.189   0.143  -0.080
    1UNL     H1   15   0.400   0.124   0.210
    1UNL     H2   16   0.237   0.181   0.176
    1UNL     H3   17   0.272   0.065   0.305
    1UNL     H4   18   0.465  -0.065   0.014
    1UNL     H5   19   0.107  -0.149   0.159
    1UNL     H6   20   0.038   0.058  -0.061
    1UNL     H7   21   0.048   0.105   0.113
    1UNL     H8   22  -0.116  -0.097   0.140
    1UNL     H9   23  -0.049  -0.206  -0.061
    1UNL    H10   24  -0.378  -0.036  -0.074
    1UNL    H11   25  -0.385  -0.061   0.101
    1UNL    H12   26  -0.434   0.095   0.008
    1UNL    H13   27  -0.186   0.096   0.245
    1UNL    H14   28  -0.310   0.204   0.202
    1UNL    H15   29  -0.144   0.243   0.137
    1UNL    H16   30  -0.200   0.104  -0.173
   0.00000   0.00000   0.00000   0.00000   0.00000   0.00000   0.00000   0.00000   0.00000
Generated with MDTraj, t= 58.0
 30
    1UNL     C1    1   0.317   0.085   0.202
    1UNL     C2    2   0.276  -0.016   0.103
    1UNL     C3    3   0.346  -0.066  -0.003
    1UNL     C4    4   0.266  -0.170  -0.071
    1UNL     O1    5   0.307  -0.240  -0.167
    1UNL     O2    6   0.144  -0.172  -0.010
    1UNL     C5    7   0.147  -0.084   0.099
    1UNL     C6    8   0.021   0.021   0.090
    1UNL     C7    9  -0.107  -0.054   0.050
    1UNL     O3   10  -0.090  -0.110  -0.077
    1UNL     C8   11  -0.224   0.054   0.039
    1UNL     C9   12  -0.364  -0.000   0.007
    1UNL    C10   13  -0.235   0.159   0.154
    1UNL     O4   14  -0.182   0.133  -0.080
    1UNL     H1   15   0.411   0.047   0.250
    1UNL     H2   16   0.336   0.185   0.155
    1UNL     H3   17   0.245   0.093   0.283
    1UNL     H4   18   0.443  -0.027  -0.027
    1UNL     H5   19   0.133  -0.151   0.182
    1UNL     H6   20   0.052   0.081   0.001
    1UNL     H7   21   0.011   0.097   0.181
    1UNL     H8   22  -0.131  -0.130   0.131
    1UNL     H9   23   0.004  -0.132  -0.100
    1UNL    H10   24  -0.360  -0.079  -0.060
    1UNL    H11   25  -0.412  -0.041   0.100
    1UNL    H12   26  -0.411   0.077  -0.051
    1UNL    H13   27  -0.293   0.113   0.233
    1UNL    H14   28  -0.301   0.241   0.119
    1UNL    H15   29  -0.138   0.205   0.178
    1UNL    H16   30  -0.156   0.066  -0.149
   0.00000   0.00000   0.00000   0.00000   0.00000   0.00000   0.00000   0.00000   0.00000
Generated with MDTraj, t= 59.0
 30
    1UNL     C1    1   0.339   0.079   0.200
    1UNL     C2    2   0.280  -0.020   0.106
    1UNL     C3    3   0.347  -0.072   0.001
    1UNL     C4    4   0.259  -0.170  -0.061
    1UNL     O1    5   0.275  -0.224  -0.173
    1UNL     O2    6   0.147  -0.184   0.016
    1UNL     C5    7   0.145  -0.079   0.105
    1UNL     C6    8   0.038   0.036   0.054
    1UNL     C7    9  -0.095  -0.036   0.043
    1UNL     O3   10  -0.086  -0.122  -0.064
    1UNL     C8   11  -0.222   0.060   0.029
    1UNL     C9   12  -0.350  -0.019  -0.011
    1UNL    C10   13  -0.260   0.140   0.153
    1UNL     O4   14  -0.190   0.157  -0.069
    1UNL     H1   15   0.382   0.014   0.278
    1UNL     H2   16   0.414   0.145   0.149
    1UNL     H3   17   0.260   0.139   0.250
    1UNL     H4   18   0.441  -0.033  -0.033
    1UNL     H5   19   0.114  -0.126   0.201
    1UNL     H6   20   0.067   0.069  -0.050
    1UNL     H7   21   0.053   0.123   0.128
    1UNL     H8   22  -0.099  -0.105   0.136
    1UNL     H9   23  -0.007  -0.175  -0.062
    1UNL    H10   24  -0.347  -0.064  -0.107
    1UNL    H11   25  -0.360  -0.106   0.051
    1UNL    H12   26  -0.433   0.050  -0.033
    1UNL    H13   27  -0.281   0.071   0.237
    1UNL    H14   28  -0.352   0.199   0.143
    1UNL    H15   29  -0.179   0.210   0.174
    1UNL    H16   30  -0.165   0.104  -0.143
   0.00000   0.00000   0.00000   0.00000   0.00000   0.00000   0.00000   0.00000   0.00000
Generated with MDTraj, t= 60.0
 30
    1UNL     C1    1   0.345   0.092   0.187
    1UNL     C2    2   0.280  -0.014   0.100
    1UNL     C3    3   0.340  -0.070   0.000
    1UNL     C4    4   0.255  -0.168  -0.061
    1UNL     O1    5   0.301  -0.235  -0.152
    1UNL     O2    6   0.134  -0.174   0.003
    1UNL     C5    7   0.140  -0.075   0.099
    1UNL     C6    8   0.024   0.026   0.076
    1UNL     C7    9  -0.108  -0.048   0.039
    1UNL     O3   10  -0.094  -0.124  -0.082
    1UNL     C8   11  -0.219   0.057   0.033
    1UNL     C9   12  -0.355   0.003  -0.009
    1UNL    C10   13  -0.251   0.127   0.165
    1UNL     O4   14  -0.169   0.148  -0.068
    1UNL     H1   15   0.363   0.051   0.287
    1UNL     H2   16   0.435   0.139   0.142
    1UNL     H3   17   0.281   0.181   0.221
    1UNL     H4   18   0.438  -0.041  -0.033
    1UNL     H5   19   0.120  -0.147   0.186
    1UNL     H6   20   0.065   0.085  -0.015
    1UNL     H7   21   0.014   0.094   0.161
    1UNL     H8   22  -0.130  -0.128   0.120
    1UNL     H9   23  -0.012  -0.180  -0.085
    1UNL    H10   24  -0.362  -0.037  -0.110
    1UNL    H11   25  -0.374  -0.082   0.047
    1UNL    H12   26  -0.430   0.081  -0.016
    1UNL    H13   27  -0.289   0.054   0.241
    1UNL    H14   28  -0.331   0.201   0.155
    1UNL    H15   29  -0.167   0.181   0.202
    1UNL    H16   30  -0.150   0.094  -0.146
   0.00000   0.00000   0.00000   0.00000   0.00000   0.00000   0.00000   0.00000   0.00000
Generated with MDTraj, t= 61.0
 30
    1UNL     C1    1   0.305   0.105   0.168
    1UNL     C2    2   0.269  -0.026   0.103
    1UNL     C3    3   0.342  -0.073   0.007
    1UNL     C4    4   0.271  -0.178  -0.068
    1UNL     O1    5   0.330  -0.253  -0.142
    1UNL     O2    6   0.140  -0.184  -0.015
    1UNL     C5    7   0.135  -0.094   0.094
    1UNL     C6    8   0.026   0.015   0.082
    1UNL     C7    9  -0.108  -0.038   0.038
    1UNL     O3   10  -0.088  -0.100  -0.087
    1UNL     C8   11  -0.218   0.069   0.034
    1UNL     C9   12  -0.348  -0.004   0.012
    1UNL    C10   13  -0.248   0.133   0.171
    1UNL     O4   14  -0.184   0.163  -0.063
    1UNL     H1   15   0.313   0.100   0.279
    1UNL     H2   16   0.390   0.157   0.120
    1UNL     H3   17   0.222   0.183   0.168
    1UNL     H4   18   0.442  -0.040  -0.017
    1UNL     H5   19   0.108  -0.165   0.178
    1UNL     H6   20   0.051   0.083  -0.009
    1UNL     H7   21   0.019   0.079   0.167
    1UNL     H8   22  -0.133  -0.130   0.104
    1UNL     H9   23  -0.007  -0.159  -0.094
    1UNL    H10   24  -0.334  -0.072  -0.072
    1UNL    H11   25  -0.376  -0.062   0.091
    1UNL    H12   26  -0.427   0.061  -0.021
    1UNL    H13   27  -0.301   0.066   0.243
    1UNL    H14   28  -0.324   0.208   0.150
    1UNL    H15   29  -0.163   0.182   0.219
    1UNL    H16   30  -0.153   0.118  -0.150
   0.00000   0.00000   0.00000   0.00000   0.00000   0.00000   0.00000   0.00000   0.00000
Generated with MDTraj, t= 62.0
 30
    1UNL     C1    1   0.331   0.085   0.191
    1UNL     C2    2   0.271  -0.021   0.103
    1UNL     C3    3   0.350  -0.076   0.014
    1UNL     C4    4   0.276  -0.181  -0.060
    1UNL     O1    5   0.329  -0.258  -0.132
    1UNL     O2    6   0.148  -0.177  -0.013
    1UNL     C5    7   0.136  -0.072   0.083
    1UNL     C6    8   0.032   0.037   0.040
    1UNL     C7    9  -0.103  -0.031   0.020
    1UNL     O3   10  -0.106  -0.117  -0.084
    1UNL     C8   11  -0.229   0.063   0.033
    1UNL     C9   12  -0.361  -0.008   0.012
    1UNL    C10   13  -0.241   0.123   0.178
    1UNL     O4   14  -0.208   0.174  -0.059
    1UNL     H1   15   0.297   0.073   0.298
    1UNL     H2   16   0.440   0.077   0.177
    1UNL     H3   17   0.297   0.185   0.155
    1UNL     H4   18   0.454  -0.061  -0.005
    1UNL     H5   19   0.093  -0.122   0.171
    1UNL     H6   20   0.070   0.082  -0.055
    1UNL     H7   21   0.023   0.123   0.102
    1UNL     H8   22  -0.105  -0.108   0.107
    1UNL     H9   23  -0.018  -0.151  -0.096
    1UNL    H10   24  -0.353  -0.071  -0.076
    1UNL    H11   25  -0.382  -0.064   0.099
    1UNL    H12   26  -0.446   0.056   0.002
    1UNL    H13   27  -0.206   0.047   0.246
    1UNL    H14   28  -0.343   0.144   0.213
    1UNL    H15   29  -0.173   0.211   0.186
    1UNL    H16   30  -0.184   0.146  -0.148
   0.00000   0.00000   0.00000   0.00000   0.00000   0.00000   0.00000   0.00000   0.00000
Generated with MDTraj, t= 63.0
 30
    1UNL     C1    1   0.323   0.092   0.191
    1UNL     C2    2   0.276  -0.020   0.099
    1UNL     C3    3   0.358  -0.089   0.019
    1UNL     C4    4   0.269  -0.181  -0.062
    1UNL     O1    5   0.326  -0.249  -0.141
    1UNL     O2    6   0.137  -0.166  -0.027
    1UNL     C5    7   0.139  -0.074   0.081
    1UNL     C6    8   0.030   0.033   0.061
    1UNL     C7    9  -0.104  -0.041   0.036
    1UNL     O3   10  -0.098  -0.102  -0.088
    1UNL     C8   11  -0.226   0.059   0.039
    1UNL     C9   12  -0.363  -0.013   0.017
    1UNL    C10   13  -0.248   0.145   0.176
    1UNL     O4   14  -0.196   0.145  -0.070
    1UNL     H1   15   0.237   0.135   0.251
    1UNL     H2   16   0.398   0.043   0.258
    1UNL     H3   17   0.378   0.165   0.131
    1UNL     H4   18   0.461  -0.071  -0.009
    1UNL     H5   19   0.115  -0.129   0.171
    1UNL     H6   20   0.054   0.082  -0.028
    1UNL     H7   21   0.034   0.117   0.131
    1UNL     H8   22  -0.116  -0.121   0.116
    1UNL     H9   23  -0.010  -0.152  -0.091
    1UNL    H10   24  -0.367  -0.022  -0.087
    1UNL    H11   25  -0.378  -0.107   0.073
    1UNL    H12   26  -0.444   0.047   0.050
    1UNL    H13   27  -0.282   0.084   0.257
    1UNL    H14   28  -0.327   0.223   0.170
    1UNL    H15   29  -0.151   0.190   0.211
    1UNL    H16   30  -0.170   0.090  -0.143
   0.00000   0.00000   0.00000   0.00000   0.00000   0.00000   0.00000   0.00000   0.00000
Generated with MDTraj, t= 64.0
 30
    1UNL     C1    1   0.303   0.086   0.197
    1UNL     C2    2   0.269  -0.021   0.101
    1UNL     C3    3   0.348  -0.065   0.001
    1UNL     C4    4   0.275  -0.176  -0.068
    1UNL     O1    5   0.319  -0.235  -0.166
    1UNL     O2    6   0.151  -0.189  -0.012
    1UNL     C5    7   0.137  -0.088   0.089
    1UNL     C6    8   0.031   0.020   0.075
    1UNL     C7    9  -0.108  -0.049   0.050
    1UNL     O3   10  -0.092  -0.109  -0.074
    1UNL     C8   11  -0.221   0.062   0.038
    1UNL     C9   12  -0.364   0.000   0.013
    1UNL    C10   13  -0.231   0.162   0.159
    1UNL     O4   14  -0.191   0.141  -0.076
    1UNL     H1   15   0.225   0.169   0.215
    1UNL     H2   16   0.312   0.046   0.303
    1UNL     H3   17   0.405   0.123   0.181
    1UNL     H4   18   0.440  -0.018  -0.029
    1UNL     H5   19   0.115  -0.152   0.174
    1UNL     H6   20   0.053   0.084  -0.000
    1UNL     H7   21   0.030   0.085   0.164
    1UNL     H8   22  -0.135  -0.123   0.129
    1UNL     H9   23  -0.017  -0.172  -0.079
    1UNL    H10   24  -0.344  -0.076  -0.055
    1UNL    H11   25  -0.411  -0.024   0.112
    1UNL    H12   26  -0.434   0.065  -0.029
    1UNL    H13   27  -0.266   0.112   0.250
    1UNL    H14   28  -0.314   0.232   0.139
    1UNL    H15   29  -0.138   0.215   0.185
    1UNL    H16   30  -0.188   0.081  -0.158
   0.00000   0.00000   0.00000   0.00000   0.00000   0.00000   0.00000   0.00000   0.00000
Generated with MDTraj, t= 65.0
 30
    1UNL     C1    1   0.327   0.066   0.210
    1UNL     C2    2   0.276  -0.021   0.107
    1UNL     C3    3   0.349  -0.071   0.007
    1UNL     C4    4   0.269  -0.158  -0.071
    1UNL     O1    5   0.301  -0.205  -0.182
    1UNL     O2    6   0.148  -0.176  -0.010
    1UNL     C5    7   0.140  -0.080   0.097
    1UNL     C6    8   0.029   0.022   0.065
    1UNL     C7    9  -0.115  -0.045   0.058
    1UNL     O3   10  -0.107  -0.151  -0.036
    1UNL     C8   11  -0.227   0.058   0.027
    1UNL     C9   12  -0.367   0.004  -0.009
    1UNL    C10   13  -0.221   0.157   0.148
    1UNL     O4   14  -0.181   0.140  -0.084
    1UNL     H1   15   0.358   0.173   0.179
    1UNL     H2   16   0.252   0.108   0.285
    1UNL     H3   17   0.407   0.018   0.269
    1UNL     H4   18   0.453  -0.050  -0.009
    1UNL     H5   19   0.118  -0.146   0.182
    1UNL     H6   20   0.049   0.074  -0.024
    1UNL     H7   21   0.036   0.097   0.141
    1UNL     H8   22  -0.134  -0.097   0.152
    1UNL     H9   23  -0.018  -0.168  -0.066
    1UNL    H10   24  -0.357  -0.068  -0.085
    1UNL    H11   25  -0.417  -0.024   0.087
    1UNL    H12   26  -0.431   0.082  -0.040
    1UNL    H13   27  -0.205   0.115   0.250
    1UNL    H14   28  -0.318   0.209   0.151
    1UNL    H15   29  -0.145   0.231   0.134
    1UNL    H16   30  -0.159   0.084  -0.165
   0.00000   0.00000   0.00000   0.00000   0.00000   0.00000   0.00000   0.00000   0.00000
Generated with MDTraj, t= 66.0
 30
    1UNL     C1    1   0.319   0.052   0.224
    1UNL     C2    2   0.274  -0.030   0.106
    1UNL     C3    3   0.346  -0.060  -0.004
    1UNL     C4    4   0.265  -0.146  -0.086
    1UNL     O1    5   0.315  -0.203  -0.186
    1UNL     O2    6   0.138  -0.166  -0.030
    1UNL     C5    7   0.140  -0.091   0.097
    1UNL     C6    8   0.028   0.023   0.092
    1UNL     C7    9  -0.110  -0.040   0.071
    1UNL     O3   10  -0.104  -0.146  -0.029
    1UNL     C8   11  -0.218   0.068   0.029
    1UNL     C9   12  -0.352  -0.009   0.010
    1UNL    C10   13  -0.234   0.187   0.127
    1UNL     O4   14  -0.183   0.116  -0.096
    1UNL     H1   15   0.431   0.046   0.234
    1UNL     H2   16   0.309   0.162   0.199
    1UNL     H3   17   0.272   0.031   0.323
    1UNL     H4   18   0.452  -0.041  -0.017
    1UNL     H5   19   0.120  -0.170   0.173
    1UNL     H6   20   0.054   0.086   0.007
    1UNL     H7   21   0.031   0.082   0.177
    1UNL     H8   22  -0.138  -0.097   0.158
    1UNL     H9   23  -0.022  -0.206  -0.022
    1UNL    H10   24  -0.351  -0.058  -0.086
    1UNL    H11   25  -0.373  -0.075   0.092
    1UNL    H12   26  -0.440   0.052   0.017
    1UNL    H13   27  -0.298   0.160   0.215
    1UNL    H14   28  -0.280   0.274   0.079
    1UNL    H15   29  -0.141   0.216   0.172
    1UNL    H16   30  -0.170   0.039  -0.149
   0.00000   0.00000   0.00000   0.00000   0.00000   0.00000   0.00000   0.00000   0.00000
Generated with MDTraj, t= 67.0
 30
    1UNL     C1    1   0.314   0.058   0.227
    1UNL     C2    2   0.268  -0.029   0.112
    1UNL     C3    3   0.350  -0.061   0.013
    1UNL     C4    4   0.272  -0.144  -0.080
    1UNL     O1    5   0.321  -0.179  -0.186
    1UNL     O2    6   0.149  -0.175  -0.033
    1UNL     C5    7   0.140  -0.096   0.084
    1UNL     C6    8   0.022   0.011   0.068
    1UNL     C7    9  -0.116  -0.047   0.065
    1UNL     O3   10  -0.128  -0.150  -0.030
    1UNL     C8   11  -0.214   0.064   0.032
    1UNL     C9   12  -0.356   0.007   0.038
    1UNL    C10   13  -0.210   0.184   0.123
    1UNL     O4   14  -0.184   0.109  -0.102
    1UNL     H1   15   0.321  -0.010   0.316
    1UNL     H2   16   0.422   0.080   0.200
    1UNL     H3   17   0.274   0.164   0.234
    1UNL     H4   18   0.455  -0.042   0.005
    1UNL     H5   19   0.107  -0.166   0.166
    1UNL     H6   20   0.032   0.078  -0.020
    1UNL     H7   21   0.022   0.069   0.155
    1UNL     H8   22  -0.142  -0.096   0.155
    1UNL     H9   23  -0.051  -0.207  -0.029
    1UNL    H10   24  -0.355  -0.097   0.004
    1UNL    H11   25  -0.406   0.018   0.127
    1UNL    H12   26  -0.427   0.054  -0.029
    1UNL    H13   27  -0.190   0.146   0.225
    1UNL    H14   28  -0.301   0.242   0.121
    1UNL    H15   29  -0.125   0.252   0.101
    1UNL    H16   30  -0.196   0.020  -0.149
   0.00000   0.00000   0.00000   0.00000   0.00000   0.00000   0.00000   0.00000   0.00000
Generated with MDTraj, t= 68.0
 30
    1UNL     C1    1   0.312   0.050   0.232
    1UNL     C2    2   0.271  -0.027   0.110
    1UNL     C3    3   0.353  -0.067   0.015
    1UNL     C4    4   0.277  -0.152  -0.082
    1UNL     O1    5   0.332  -0.187  -0.182
    1UNL     O2    6   0.148  -0.171  -0.034
    1UNL     C5    7   0.135  -0.083   0.082
    1UNL     C6    8   0.023   0.024   0.059
    1UNL     C7    9  -0.116  -0.040   0.060
    1UNL     O3   10  -0.127  -0.145  -0.039
    1UNL     C8   11  -0.224   0.062   0.029
    1UNL     C9   12  -0.351  -0.008   0.060
    1UNL    C10   13  -0.213   0.182   0.124
    1UNL     O4   14  -0.193   0.114  -0.106
    1UNL     H1   15   0.221   0.077   0.292
    1UNL     H2   16   0.360  -0.023   0.300
    1UNL     H3   17   0.397   0.127   0.219
    1UNL     H4   18   0.458  -0.050  -0.005
    1UNL     H5   19   0.107  -0.141   0.173
    1UNL     H6   20   0.033   0.069  -0.042
    1UNL     H7   21   0.016   0.105   0.132
    1UNL     H8   22  -0.137  -0.086   0.152
    1UNL     H9   23  -0.036  -0.179  -0.064
    1UNL    H10   24  -0.366  -0.086  -0.014
    1UNL    H11   25  -0.354  -0.044   0.159
    1UNL    H12   26  -0.434   0.060   0.055
    1UNL    H13   27  -0.211   0.152   0.228
    1UNL    H14   28  -0.296   0.251   0.107
    1UNL    H15   29  -0.119   0.242   0.107
    1UNL    H16   30  -0.186   0.024  -0.155
   0.00000   0.00000   0.00000   0.00000   0.00000   0.00000   0.00000   0.00000   0.00000
Generated with MDTraj, t= 69.0
 30
    1UNL     C1    1   0.312   0.054   0.221
    1UNL     C2    2   0.276  -0.019   0.098
    1UNL     C3    3   0.362  -0.074   0.014
    1UNL     C4    4   0.284  -0.161  -0.081
    1UNL     O1    5   0.339  -0.215  -0.171
    1UNL     O2    6   0.154  -0.160  -0.042
    1UNL     C5    7   0.138  -0.080   0.079
    1UNL     C6    8   0.030   0.019   0.078
    1UNL     C7    9  -0.112  -0.033   0.054
    1UNL     O3   10  -0.118  -0.132  -0.050
    1UNL     C8   11  -0.227   0.064   0.033
    1UNL     C9   12  -0.355  -0.016   0.050
    1UNL    C10   13  -0.239   0.182   0.136
    1UNL     O4   14  -0.216   0.122  -0.097
    1UNL     H1   15   0.307   0.165   0.210
    1UNL     H2   16   0.258   0.031   0.314
    1UNL     H3   17   0.423   0.031   0.248
    1UNL     H4   18   0.467  -0.058   0.008
    1UNL     H5   19   0.125  -0.152   0.162
    1UNL     H6   20   0.057   0.089  -0.001
    1UNL     H7   21   0.043   0.076   0.178
    1UNL     H8   22  -0.138  -0.093   0.137
    1UNL     H9   23  -0.023  -0.163  -0.062
    1UNL    H10   24  -0.353  -0.090  -0.025
    1UNL    H11   25  -0.350  -0.061   0.151
    1UNL    H12   26  -0.444   0.041   0.047
    1UNL    H13   27  -0.267   0.137   0.230
    1UNL    H14   28  -0.312   0.260   0.104
    1UNL    H15   29  -0.145   0.236   0.160
    1UNL    H16   30  -0.189   0.051  -0.154
   0.00000   0.00000   0.00000   0.00000   0.00000   0.00000   0.00000   0.00000   0.00000
Generated with MDTraj, t= 70.0
 30
    1UNL     C1    1   0.306   0.085   0.208
    1UNL     C2    2   0.272  -0.006   0.095
    1UNL     C3    3   0.362  -0.075   0.020
    1UNL     C4    4   0.284  -0.165  -0.068
    1UNL     O1    5   0.324  -0.220  -0.168
    1UNL     O2    6   0.152  -0.174  -0.024
    1UNL     C5    7   0.136  -0.071   0.078
    1UNL     C6    8   0.024   0.018   0.052
    1UNL     C7    9  -0.110  -0.049   0.042
    1UNL     O3   10  -0.121  -0.144  -0.063
    1UNL     C8   11  -0.222   0.062   0.035
    1UNL     C9   12  -0.356  -0.005   0.022
    1UNL    C10   13  -0.217   0.145   0.170
    1UNL     O4   14  -0.206   0.146  -0.076
    1UNL     H1   15   0.386   0.152   0.168
    1UNL     H2   16   0.227   0.132   0.272
    1UNL     H3   17   0.372   0.032   0.285
    1UNL     H4   18   0.469  -0.076   0.016
    1UNL     H5   19   0.128  -0.127   0.171
    1UNL     H6   20   0.057   0.073  -0.037
    1UNL     H7   21   0.025   0.099   0.137
    1UNL     H8   22  -0.141  -0.111   0.122
    1UNL     H9   23  -0.037  -0.187  -0.066
    1UNL    H10   24  -0.339  -0.083  -0.045
    1UNL    H11   25  -0.402  -0.032   0.122
    1UNL    H12   26  -0.417   0.065  -0.026
    1UNL    H13   27  -0.184   0.091   0.260
    1UNL    H14   28  -0.318   0.192   0.185
    1UNL    H15   29  -0.157   0.234   0.159
    1UNL    H16   30  -0.176   0.093  -0.154
   0.00000   0.00000   0.00000   0.00000   0.00000   0.00000   0.00000   0.00000   0.00000
Generated with MDTraj, t= 71.0
 30
    1UNL     C1    1   0.306   0.097   0.190
    1UNL     C2    2   0.281  -0.006   0.086
    1UNL     C3    3   0.353  -0.063  -0.014
    1UNL     C4    4   0.276  -0.174  -0.068
    1UNL     O1    5   0.322  -0.242  -0.158
    1UNL     O2    6   0.155  -0.189  -0.008
    1UNL     C5    7   0.146  -0.076   0.092
    1UNL     C6    8   0.020   0.021   0.076
    1UNL     C7    9  -0.113  -0.046   0.046
    1UNL     O3   10  -0.103  -0.107  -0.080
    1UNL     C8   11  -0.230   0.056   0.043
    1UNL     C9   12  -0.361  -0.024   0.003
    1UNL    C10   13  -0.237   0.139   0.170
    1UNL     O4   14  -0.192   0.157  -0.056
    1UNL     H1   15   0.402   0.147   0.159
    1UNL     H2   16   0.217   0.165   0.203
    1UNL     H3   17   0.325   0.051   0.288
    1UNL     H4   18   0.457  -0.037  -0.032
    1UNL     H5   19   0.132  -0.119   0.191
    1UNL     H6   20   0.037   0.086  -0.015
    1UNL     H7   21   0.012   0.100   0.157
    1UNL     H8   22  -0.141  -0.128   0.111
    1UNL     H9   23  -0.009  -0.148  -0.078
    1UNL    H10   24  -0.350  -0.066  -0.094
    1UNL    H11   25  -0.370  -0.098   0.084
    1UNL    H12   26  -0.449   0.035   0.012
    1UNL    H13   27  -0.298   0.084   0.247
    1UNL    H14   28  -0.275   0.243   0.153
    1UNL    H15   29  -0.141   0.156   0.209
    1UNL    H16   30  -0.159   0.111  -0.142
   0.00000   0.00000   0.00000   0.00000   0.00000   0.00000   0.00000   0.00000   0.00000
Generated with MDTraj, t= 72.0
 30
    1UNL     C1    1   0.337   0.106   0.167
    1UNL     C2    2   0.283  -0.003   0.089
    1UNL     C3    3   0.354  -0.082   0.007
    1UNL     C4    4   0.267  -0.175  -0.058
    1UNL     O1    5   0.291  -0.245  -0.157
    1UNL     O2    6   0.140  -0.171  -0.007
    1UNL     C5    7   0.146  -0.069   0.094
    1UNL     C6    8   0.029   0.028   0.081
    1UNL     C7    9  -0.099  -0.045   0.044
    1UNL     O3   10  -0.095  -0.095  -0.087
    1UNL     C8   11  -0.228   0.049   0.046
    1UNL     C9   12  -0.344  -0.035  -0.020
    1UNL    C10   13  -0.257   0.121   0.179
    1UNL     O4   14  -0.195   0.155  -0.047
    1UNL     H1   15   0.444   0.126   0.136
    1UNL     H2   16   0.269   0.193   0.146
    1UNL     H3   17   0.334   0.079   0.272
    1UNL     H4   18   0.460  -0.077  -0.004
    1UNL     H5   19   0.141  -0.109   0.198
    1UNL     H6   20   0.042   0.117   0.006
    1UNL     H7   21   0.004   0.081   0.174
    1UNL     H8   22  -0.116  -0.124   0.118
    1UNL     H9   23  -0.006  -0.139  -0.097
    1UNL    H10   24  -0.318  -0.060  -0.124
    1UNL    H11   25  -0.374  -0.119   0.034
    1UNL    H12   26  -0.434   0.025  -0.027
    1UNL    H13   27  -0.232   0.056   0.267
    1UNL    H14   28  -0.362   0.153   0.188
    1UNL    H15   29  -0.202   0.213   0.177
    1UNL    H16   30  -0.165   0.112  -0.129
   0.00000   0.00000   0.00000   0.00000   0.00000   0.00000   0.00000   0.00000   0.00000
Generated with MDTraj, t= 73.0
 30
    1UNL     C1    1   0.342   0.104   0.178
    1UNL     C2    2   0.280   0.002   0.088
    1UNL     C3    3   0.338  -0.065  -0.011
    1UNL     C4    4   0.256  -0.176  -0.055
    1UNL     O1    5   0.291  -0.249  -0.146
    1UNL     O2    6   0.141  -0.178   0.020
    1UNL     C5    7   0.136  -0.064   0.104
    1UNL     C6    8   0.031   0.025   0.058
    1UNL     C7    9  -0.096  -0.050   0.027
    1UNL     O3   10  -0.092  -0.100  -0.115
    1UNL     C8   11  -0.219   0.050   0.048
    1UNL     C9   12  -0.334  -0.025  -0.016
    1UNL    C10   13  -0.237   0.103   0.193
    1UNL     O4   14  -0.210   0.162  -0.044
    1UNL     H1   15   0.453   0.094   0.180
    1UNL     H2   16   0.312   0.204   0.136
    1UNL     H3   17   0.313   0.102   0.283
    1UNL     H4   18   0.442  -0.045  -0.034
    1UNL     H5   19   0.118  -0.093   0.211
    1UNL     H6   20   0.057   0.077  -0.044
    1UNL     H7   21   0.018   0.108   0.128
    1UNL     H8   22  -0.111  -0.125   0.111
    1UNL     H9   23  -0.035  -0.176  -0.115
    1UNL    H10   24  -0.313  -0.057  -0.119
    1UNL    H11   25  -0.377  -0.100   0.039
    1UNL    H12   26  -0.418   0.043  -0.026
    1UNL    H13   27  -0.275   0.027   0.266
    1UNL    H14   28  -0.311   0.181   0.189
    1UNL    H15   29  -0.147   0.160   0.226
    1UNL    H16   30  -0.187   0.132  -0.130
   0.00000   0.00000   0.00000   0.00000   0.00000   0.00000   0.00000   0.00000   0.00000
Generated with MDTraj, t= 74.0
 30
    1UNL     C1    1   0.325   0.111   0.159
    1UNL     C2    2   0.281  -0.010   0.091
    1UNL     C3    3   0.349  -0.077   0.002
    1UNL     C4    4   0.268  -0.182  -0.058
    1UNL     O1    5   0.306  -0.248  -0.153
    1UNL     O2    6   0.139  -0.178  -0.002
    1UNL     C5    7   0.139  -0.074   0.097
    1UNL     C6    8   0.027   0.029   0.077
    1UNL     C7    9  -0.103  -0.038   0.044
    1UNL     O3   10  -0.090  -0.095  -0.090
    1UNL     C8   11  -0.228   0.054   0.037
    1UNL     C9   12  -0.343  -0.040  -0.018
    1UNL    C10   13  -0.246   0.104   0.179
    1UNL     O4   14  -0.199   0.177  -0.035
    1UNL     H1   15   0.413   0.094   0.224
    1UNL     H2   16   0.346   0.183   0.076
    1UNL     H3   17   0.251   0.163   0.221
    1UNL     H4   18   0.446  -0.054  -0.037
    1UNL     H5   19   0.146  -0.122   0.199
    1UNL     H6   20   0.057   0.100  -0.005
    1UNL     H7   21   0.028   0.082   0.174
    1UNL     H8   22  -0.132  -0.110   0.129
    1UNL     H9   23   0.007  -0.118  -0.106
    1UNL    H10   24  -0.319  -0.094  -0.108
    1UNL    H11   25  -0.378  -0.108   0.062
    1UNL    H12   26  -0.436   0.011  -0.031
    1UNL    H13   27  -0.278   0.024   0.248
    1UNL    H14   28  -0.325   0.176   0.176
    1UNL    H15   29  -0.154   0.165   0.207
    1UNL    H16   30  -0.186   0.164  -0.129
   0.00000   0.00000   0.00000   0.00000   0.00000   0.00000   0.00000   0.00000   0.00000
Generated with MDTraj, t= 75.0
 30
    1UNL     C1    1   0.332   0.103   0.173
    1UNL     C2    2   0.279   0.002   0.081
    1UNL     C3    3   0.350  -0.064  -0.005
    1UNL     C4    4   0.272  -0.176  -0.063
    1UNL     O1    5   0.318  -0.251  -0.143
    1UNL     O2    6   0.145  -0.173  -0.017
    1UNL     C5    7   0.143  -0.073   0.093
    1UNL     C6    8   0.016   0.022   0.086
    1UNL     C7    9  -0.110  -0.047   0.041
    1UNL     O3   10  -0.103  -0.107  -0.091
    1UNL     C8   11  -0.228   0.058   0.042
    1UNL     C9   12  -0.353  -0.017  -0.007
    1UNL    C10   13  -0.248   0.110   0.183
    1UNL     O4   14  -0.188   0.163  -0.051
    1UNL     H1   15   0.397   0.057   0.249
    1UNL     H2   16   0.384   0.166   0.100
    1UNL     H3   17   0.251   0.165   0.220
    1UNL     H4   18   0.453  -0.038  -0.028
    1UNL     H5   19   0.157  -0.133   0.187
    1UNL     H6   20   0.040   0.112   0.034
    1UNL     H7   21   0.002   0.037   0.196
    1UNL     H8   22  -0.146  -0.126   0.118
    1UNL     H9   23  -0.040  -0.177  -0.091
    1UNL    H10   24  -0.336  -0.052  -0.104
    1UNL    H11   25  -0.384  -0.102   0.063
    1UNL    H12   26  -0.439   0.046   0.002
    1UNL    H13   27  -0.267   0.028   0.253
    1UNL    H14   28  -0.337   0.173   0.189
    1UNL    H15   29  -0.156   0.172   0.204
    1UNL    H16   30  -0.150   0.122  -0.136
   0.00000   0.00000   0.00000   0.00000   0.00000   0.00000   0.00000   0.00000   0.00000
Generated with MDTraj, t= 76.0
 30
    1UNL     C1    1   0.314   0.093   0.197
    1UNL     C2    2   0.276  -0.004   0.089
    1UNL     C3    3   0.353  -0.072   0.007
    1UNL     C4    4   0.274  -0.170  -0.067
    1UNL     O1    5   0.311  -0.222  -0.170
    1UNL     O2    6   0.150  -0.187  -0.006
    1UNL     C5    7   0.139  -0.081   0.095
    1UNL     C6    8   0.033   0.021   0.054
    1UNL     C7    9  -0.105  -0.043   0.043
    1UNL     O3   10  -0.111  -0.124  -0.077
    1UNL     C8   11  -0.215   0.067   0.041
    1UNL     C9   12  -0.337  -0.016   0.014
    1UNL    C10   13  -0.248   0.132   0.178
    1UNL     O4   14  -0.204   0.154  -0.072
    1UNL     H1   15   0.384   0.050   0.270
    1UNL     H2   16   0.353   0.178   0.141
    1UNL     H3   17   0.225   0.130   0.254
    1UNL     H4   18   0.460  -0.067  -0.001
    1UNL     H5   19   0.132  -0.119   0.198
    1UNL     H6   20   0.055   0.065  -0.038
    1UNL     H7   21   0.030   0.097   0.134
    1UNL     H8   22  -0.125  -0.111   0.134
    1UNL     H9   23  -0.017  -0.157  -0.094
    1UNL    H10   24  -0.322  -0.074  -0.075
    1UNL    H11   25  -0.361  -0.082   0.101
    1UNL    H12   26  -0.419   0.055   0.013
    1UNL    H13   27  -0.266   0.055   0.254
    1UNL    H14   28  -0.349   0.182   0.172
    1UNL    H15   29  -0.169   0.198   0.213
    1UNL    H16   30  -0.149   0.108  -0.147
   0.00000   0.00000   0.00000   0.00000   0.00000   0.00000   0.00000   0.00000   0.00000
Generated with MDTraj, t= 77.0
 30
    1UNL     C1    1   0.323   0.061   0.218
    1UNL     C2    2   0.281  -0.011   0.098
    1UNL     C3    3   0.356  -0.066   0.003
    1UNL     C4    4   0.277  -0.156  -0.079
    1UNL     O1    5   0.319  -0.218  -0.176
    1UNL     O2    6   0.151  -0.168  -0.024
    1UNL     C5    7   0.141  -0.070   0.082
    1UNL     C6    8   0.029   0.025   0.080
    1UNL     C7    9  -0.114  -0.040   0.055
    1UNL     O3   10  -0.113  -0.122  -0.064
    1UNL     C8   11  -0.232   0.061   0.034
    1UNL     C9   12  -0.366  -0.023   0.036
    1UNL    C10   13  -0.233   0.160   0.147
    1UNL     O4   14  -0.190   0.122  -0.090
    1UNL     H1   15   0.424   0.038   0.255
    1UNL     H2   16   0.307   0.166   0.196
    1UNL     H3   17   0.259   0.044   0.306
    1UNL     H4   18   0.462  -0.057  -0.003
    1UNL     H5   19   0.119  -0.116   0.178
    1UNL     H6   20   0.048   0.096   0.006
    1UNL     H7   21   0.021   0.077   0.174
    1UNL     H8   22  -0.142  -0.105   0.146
    1UNL     H9   23  -0.027  -0.170  -0.052
    1UNL    H10   24  -0.356  -0.115  -0.024
    1UNL    H11   25  -0.391  -0.052   0.135
    1UNL    H12   26  -0.451   0.043   0.009
    1UNL    H13   27  -0.237   0.111   0.245
    1UNL    H14   28  -0.329   0.219   0.143
    1UNL    H15   29  -0.151   0.228   0.151
    1UNL    H16   30  -0.171   0.047  -0.151
   0.00000   0.00000   0.00000   0.00000   0.00000   0.00000   0.00000   0.00000   0.00000
Generated with MDTraj, t= 78.0
 30
    1UNL     C1    1   0.305   0.057   0.224
    1UNL     C2    2   0.275  -0.024   0.106
    1UNL     C3    3   0.362  -0.074   0.014
    1UNL     C4    4   0.282  -0.147  -0.081
    1UNL     O1    5   0.326  -0.185  -0.189
    1UNL     O2    6   0.155  -0.170  -0.037
    1UNL     C5    7   0.135  -0.084   0.082
    1UNL     C6    8   0.028   0.019   0.068
    1UNL     C7    9  -0.113  -0.044   0.066
    1UNL     O3   10  -0.123  -0.145  -0.032
    1UNL     C8   11  -0.223   0.058   0.036
    1UNL     C9   12  -0.364  -0.008   0.046
    1UNL    C10   13  -0.211   0.178   0.126
    1UNL     O4   14  -0.200   0.112  -0.098
    1UNL     H1   15   0.414   0.066   0.245
    1UNL     H2   16   0.256   0.154   0.209
    1UNL     H3   17   0.257   0.018   0.312
    1UNL     H4   18   0.467  -0.047   0.012
    1UNL     H5   19   0.101  -0.136   0.174
    1UNL     H6   20   0.043   0.074  -0.021
    1UNL     H7   21   0.028   0.095   0.140
    1UNL     H8   22  -0.136  -0.097   0.162
    1UNL     H9   23  -0.041  -0.141  -0.081
    1UNL    H10   24  -0.377  -0.080  -0.040
    1UNL    H11   25  -0.381  -0.064   0.131
    1UNL    H12   26  -0.443   0.070   0.046
    1UNL    H13   27  -0.201   0.164   0.236
    1UNL    H14   28  -0.296   0.249   0.110
    1UNL    H15   29  -0.125   0.236   0.098
    1UNL    H16   30  -0.194   0.037  -0.156
   0.00000   0.00000   0.00000   0.00000   0.00000   0.00000   0.00000   0.00000   0.00000
Generated with MDTraj, t= 79.0
 30
    1UNL     C1    1   0.298   0.049   0.238
    1UNL     C2    2   0.265  -0.025   0.111
    1UNL     C3    3   0.346  -0.050   0.004
    1UNL     C4    4   0.279  -0.140  -0.089
    1UNL     O1    5   0.334  -0.181  -0.191
    1UNL     O2    6   0.155  -0.176  -0.045
    1UNL     C5    7   0.140  -0.097   0.084
    1UNL     C6    8   0.028   0.004   0.073
    1UNL     C7    9  -0.110  -0.047   0.071
    1UNL     O3   10  -0.123  -0.154  -0.019
    1UNL     C8   11  -0.216   0.066   0.035
    1UNL     C9   12  -0.351  -0.001   0.039
    1UNL    C10   13  -0.201   0.202   0.117
    1UNL     O4   14  -0.212   0.104  -0.097
    1UNL     H1   15   0.406   0.030   0.251
    1UNL     H2   16   0.281   0.157   0.233
    1UNL     H3   17   0.236   0.013   0.316
    1UNL     H4   18   0.441  -0.007  -0.019
    1UNL     H5   19   0.126  -0.167   0.171
    1UNL     H6   20   0.042   0.064  -0.015
    1UNL     H7   21   0.029   0.079   0.142
    1UNL     H8   22  -0.144  -0.093   0.165
    1UNL     H9   23  -0.034  -0.163  -0.068
    1UNL    H10   24  -0.338  -0.097  -0.013
    1UNL    H11   25  -0.386  -0.025   0.140
    1UNL    H12   26  -0.429   0.057  -0.009
    1UNL    H13   27  -0.217   0.186   0.225
    1UNL    H14   28  -0.267   0.283   0.088
    1UNL    H15   29  -0.098   0.242   0.108
    1UNL    H16   30  -0.232   0.017  -0.149
   0.00000   0.00000   0.00000   0.00000   0.00000   0.00000   0.00000   0.00000   0.00000
Generated with MDTraj, t= 80.0
 30
    1UNL     C1    1   0.325   0.052   0.227
    1UNL     C2    2   0.277  -0.030   0.112
    1UNL     C3    3   0.360  -0.076   0.017
    1UNL     C4    4   0.271  -0.140  -0.082
    1UNL     O1    5   0.315  -0.176  -0.189
    1UNL     O2    6   0.144  -0.155  -0.038
    1UNL     C5    7   0.134  -0.081   0.088
    1UNL     C6    8   0.025   0.023   0.075
    1UNL     C7    9  -0.113  -0.041   0.067
    1UNL     O3   10  -0.119  -0.152  -0.027
    1UNL     C8   11  -0.226   0.054   0.033
    1UNL     C9   12  -0.362  -0.018   0.031
    1UNL    C10   13  -0.205   0.183   0.119
    1UNL     O4   14  -0.200   0.110  -0.102
    1UNL     H1   15   0.420  -0.000   0.243
    1UNL     H2   16   0.358   0.152   0.204
    1UNL     H3   17   0.264   0.053   0.315
    1UNL     H4   18   0.464  -0.051   0.004
    1UNL     H5   19   0.109  -0.163   0.163
    1UNL     H6   20   0.042   0.094  -0.002
    1UNL     H7   21   0.027   0.080   0.162
    1UNL     H8   22  -0.143  -0.098   0.153
    1UNL     H9   23  -0.029  -0.181  -0.038
    1UNL    H10   24  -0.341  -0.113  -0.014
    1UNL    H11   25  -0.401  -0.043   0.137
    1UNL    H12   26  -0.438   0.033  -0.023
    1UNL    H13   27  -0.201   0.157   0.226
    1UNL    H14   28  -0.282   0.256   0.105
    1UNL    H15   29  -0.106   0.231   0.093
    1UNL    H16   30  -0.220   0.037  -0.163
   0.00000   0.00000   0.00000   0.00000   0.00000   0.00000   0.00000   0.00000   0.00000
Generated with MDTraj, t= 81.0
 30
    1UNL     C1    1   0.318   0.055   0.220
    1UNL     C2    2   0.273  -0.022   0.102
    1UNL     C3    3   0.347  -0.053  -0.002
    1UNL     C4    4   0.274  -0.151  -0.086
    1UNL     O1    5   0.326  -0.198  -0.186
    1UNL     O2    6   0.150  -0.178  -0.021
    1UNL     C5    7   0.141  -0.081   0.089
    1UNL     C6    8   0.029   0.025   0.068
    1UNL     C7    9  -0.113  -0.040   0.075
    1UNL     O3   10  -0.123  -0.136  -0.040
    1UNL     C8   11  -0.225   0.060   0.032
    1UNL     C9   12  -0.356  -0.024   0.023
    1UNL    C10   13  -0.235   0.171   0.138
    1UNL     O4   14  -0.185   0.125  -0.088
    1UNL     H1   15   0.389  -0.015   0.260
    1UNL     H2   16   0.382   0.140   0.210
    1UNL     H3   17   0.243   0.077   0.296
    1UNL     H4   18   0.451  -0.038  -0.022
    1UNL     H5   19   0.130  -0.147   0.179
    1UNL     H6   20   0.037   0.072  -0.025
    1UNL     H7   21   0.036   0.102   0.145
    1UNL     H8   22  -0.142  -0.094   0.161
    1UNL     H9   23  -0.032  -0.170  -0.054
    1UNL    H10   24  -0.357  -0.082  -0.066
    1UNL    H11   25  -0.371  -0.092   0.112
    1UNL    H12   26  -0.439   0.048   0.021
    1UNL    H13   27  -0.278   0.138   0.234
    1UNL    H14   28  -0.308   0.238   0.095
    1UNL    H15   29  -0.144   0.236   0.147
    1UNL    H16   30  -0.140   0.057  -0.134
   0.00000   0.00000   0.00000   0.00000   0.00000   0.00000   0.00000   0.00000   0.00000
Generated with MDTraj, t= 82.0
 30
    1UNL     C1    1   0.315   0.092   0.195
    1UNL     C2    2   0.273  -0.013   0.096
    1UNL     C3    3   0.354  -0.069   0.012
    1UNL     C4    4   0.273  -0.163  -0.075
    1UNL     O1    5   0.321  -0.210  -0.175
    1UNL     O2    6   0.150  -0.176  -0.024
    1UNL     C5    7   0.140  -0.085   0.086
    1UNL     C6    8   0.019   0.010   0.078
    1UNL     C7    9  -0.114  -0.049   0.057
    1UNL     O3   10  -0.112  -0.125  -0.069
    1UNL     C8   11  -0.221   0.064   0.045
    1UNL     C9   12  -0.352  -0.007   0.016
    1UNL    C10   13  -0.238   0.158   0.169
    1UNL     O4   14  -0.183   0.128  -0.086
    1UNL     H1   15   0.379   0.033   0.257
    1UNL     H2   16   0.377   0.176   0.171
    1UNL     H3   17   0.229   0.127   0.254
    1UNL     H4   18   0.461  -0.061   0.014
    1UNL     H5   19   0.125  -0.157   0.167
    1UNL     H6   20   0.033   0.078  -0.000
    1UNL     H7   21   0.012   0.057   0.181
    1UNL     H8   22  -0.141  -0.113   0.135
    1UNL     H9   23  -0.055  -0.205  -0.045
    1UNL    H10   24  -0.340  -0.086  -0.060
    1UNL    H11   25  -0.379  -0.052   0.109
    1UNL    H12   26  -0.431   0.066  -0.018
    1UNL    H13   27  -0.238   0.091   0.258
    1UNL    H14   28  -0.334   0.215   0.179
    1UNL    H15   29  -0.159   0.233   0.171
    1UNL    H16   30  -0.137   0.053  -0.132
   0.00000   0.00000   0.00000   0.00000   0.00000   0.00000   0.00000   0.00000   0.00000
Generated with MDTraj, t= 83.0
 30
    1UNL     C1    1   0.323   0.091   0.193
    1UNL     C2    2   0.275  -0.007   0.090
    1UNL     C3    3   0.355  -0.068   0.005
    1UNL     C4    4   0.273  -0.172  -0.064
    1UNL     O1    5   0.321  -0.235  -0.157
    1UNL     O2    6   0.143  -0.174  -0.015
    1UNL     C5    7   0.140  -0.071   0.083
    1UNL     C6    8   0.025   0.029   0.065
    1UNL     C7    9  -0.101  -0.041   0.043
    1UNL     O3   10  -0.112  -0.121  -0.079
    1UNL     C8   11  -0.221   0.059   0.035
    1UNL     C9   12  -0.357  -0.015   0.016
    1UNL    C10   13  -0.234   0.120   0.175
    1UNL     O4   14  -0.197   0.154  -0.067
    1UNL     H1   15   0.413   0.053   0.234
    1UNL     H2   16   0.335   0.196   0.171
    1UNL     H3   17   0.244   0.082   0.269
    1UNL     H4   18   0.462  -0.074  -0.008
    1UNL     H5   19   0.126  -0.122   0.178
    1UNL     H6   20   0.031   0.086  -0.027
    1UNL     H7   21   0.013   0.092   0.158
    1UNL     H8   22  -0.122  -0.103   0.126
    1UNL     H9   23  -0.040  -0.182  -0.069
    1UNL    H10   24  -0.349  -0.075  -0.079
    1UNL    H11   25  -0.385  -0.078   0.095
    1UNL    H12   26  -0.438   0.059  -0.011
    1UNL    H13   27  -0.262   0.045   0.252
    1UNL    H14   28  -0.323   0.191   0.181
    1UNL    H15   29  -0.154   0.188   0.197
    1UNL    H16   30  -0.170   0.099  -0.149
   0.00000   0.00000   0.00000   0.00000   0.00000   0.00000   0.00000   0.00000   0.00000
Generated with MDTraj, t= 84.0
 30
    1UNL     C1    1   0.320   0.096   0.178
    1UNL     C2    2   0.282  -0.015   0.093
    1UNL     C3    3   0.355  -0.077   0.001
    1UNL     C4    4   0.274  -0.187  -0.061
    1UNL     O1    5   0.320  -0.254  -0.154
    1UNL     O2    6   0.149  -0.177  -0.006
    1UNL     C5    7   0.139  -0.067   0.089
    1UNL     C6    8   0.028   0.035   0.068
    1UNL     C7    9  -0.105  -0.026   0.040
    1UNL     O3   10  -0.092  -0.097  -0.087
    1UNL     C8   11  -0.232   0.058   0.035
    1UNL     C9   12  -0.352  -0.034   0.010
    1UNL    C10   13  -0.243   0.113   0.176
    1UNL     O4   14  -0.215   0.171  -0.057
    1UNL     H1   15   0.424   0.120   0.171
    1UNL     H2   16   0.264   0.185   0.160
    1UNL     H3   17   0.303   0.054   0.276
    1UNL     H4   18   0.457  -0.052  -0.015
    1UNL     H5   19   0.121  -0.115   0.184
    1UNL     H6   20   0.045   0.090  -0.029
    1UNL     H7   21   0.017   0.104   0.157
    1UNL     H8   22  -0.122  -0.102   0.113
    1UNL     H9   23   0.004  -0.127  -0.084
    1UNL    H10   24  -0.351  -0.075  -0.094
    1UNL    H11   25  -0.341  -0.117   0.079
    1UNL    H12   26  -0.451   0.013   0.024
    1UNL    H13   27  -0.263   0.028   0.244
    1UNL    H14   28  -0.322   0.190   0.199
    1UNL    H15   29  -0.151   0.168   0.184
    1UNL    H16   30  -0.206   0.150  -0.154
   0.00000   0.00000   0.00000   0.00000   0.00000   0.00000   0.00000   0.00000   0.00000
Generated with MDTraj, t= 85.0
 30
    1UNL     C1    1   0.330   0.113   0.167
    1UNL     C2    2   0.275  -0.000   0.086
    1UNL     C3    3   0.347  -0.079   0.004
    1UNL     C4    4   0.266  -0.180  -0.054
    1UNL     O1    5   0.309  -0.254  -0.141
    1UNL     O2    6   0.136  -0.173  -0.014
    1UNL     C5    7   0.137  -0.076   0.090
    1UNL     C6    8   0.026   0.022   0.085
    1UNL     C7    9  -0.096  -0.038   0.033
    1UNL     O3   10  -0.089  -0.088  -0.102
    1UNL     C8   11  -0.223   0.055   0.044
    1UNL     C9   12  -0.351  -0.021  -0.007
    1UNL    C10   13  -0.240   0.110   0.192
    1UNL     O4   14  -0.202   0.151  -0.053
    1UNL     H1   15   0.425   0.163   0.144
    1UNL     H2   16   0.263   0.196   0.164
    1UNL     H3   17   0.344   0.071   0.264
    1UNL     H4   18   0.452  -0.070  -0.016
    1UNL     H5   19   0.144  -0.134   0.183
    1UNL     H6   20   0.055   0.108   0.010
    1UNL     H7   21   0.003   0.071   0.183
    1UNL     H8   22  -0.116  -0.129   0.093
    1UNL     H9   23  -0.013  -0.145  -0.108
    1UNL    H10   24  -0.342  -0.076  -0.101
    1UNL    H11   25  -0.390  -0.095   0.073
    1UNL    H12   26  -0.429   0.052  -0.025
    1UNL    H13   27  -0.242   0.027   0.265
    1UNL    H14   28  -0.339   0.156   0.206
    1UNL    H15   29  -0.169   0.195   0.204
    1UNL    H16   30  -0.165   0.110  -0.129
   0.00000   0.00000   0.00000   0.00000   0.00000   0.00000   0.00000   0.00000   0.00000
Generated with MDTraj, t= 86.0
 30
    1UNL     C1    1   0.335   0.099   0.172
    1UNL     C2    2   0.282  -0.007   0.092
    1UNL     C3    3   0.348  -0.067  -0.006
    1UNL     C4    4   0.266  -0.173  -0.059
    1UNL     O1    5   0.306  -0.243  -0.151
    1UNL     O2    6   0.146  -0.185   0.009
    1UNL     C5    7   0.139  -0.067   0.094
    1UNL     C6    8   0.028   0.028   0.054
    1UNL     C7    9  -0.102  -0.046   0.045
    1UNL     O3   10  -0.102  -0.107  -0.086
    1UNL     C8   11  -0.226   0.051   0.050
    1UNL     C9   12  -0.339  -0.016  -0.022
    1UNL    C10   13  -0.260   0.110   0.183
    1UNL     O4   14  -0.197   0.165  -0.044
    1UNL     H1   15   0.412   0.162   0.124
    1UNL     H2   16   0.258   0.173   0.181
    1UNL     H3   17   0.380   0.058   0.258
    1UNL     H4   18   0.450  -0.036  -0.024
    1UNL     H5   19   0.122  -0.106   0.197
    1UNL     H6   20   0.054   0.067  -0.054
    1UNL     H7   21   0.033   0.120   0.118
    1UNL     H8   22  -0.122  -0.124   0.124
    1UNL     H9   23  -0.021  -0.167  -0.077
    1UNL    H10   24  -0.303  -0.056  -0.116
    1UNL    H11   25  -0.378  -0.109   0.035
    1UNL    H12   26  -0.417   0.059  -0.041
    1UNL    H13   27  -0.300   0.029   0.247
    1UNL    H14   28  -0.335   0.186   0.178
    1UNL    H15   29  -0.164   0.158   0.219
    1UNL    H16   30  -0.157   0.119  -0.120
   0.00000   0.00000   0.00000   0.00000   0.00000   0.00000   0.00000   0.00000   0.00000
Generated with MDTraj, t= 87.0
 30
    1UNL     C1    1   0.332   0.099   0.182
    1UNL     C2    2   0.278  -0.009   0.095
    1UNL     C3    3   0.344  -0.065  -0.007
    1UNL     C4    4   0.267  -0.169  -0.073
    1UNL     O1    5   0.313  -0.238  -0.163
    1UNL     O2    6   0.145  -0.180  -0.003
    1UNL     C5    7   0.139  -0.074   0.096
    1UNL     C6    8   0.030   0.027   0.068
    1UNL     C7    9  -0.107  -0.043   0.055
    1UNL     O3   10  -0.107  -0.112  -0.062
    1UNL     C8   11  -0.229   0.054   0.038
    1UNL     C9   12  -0.353  -0.026  -0.028
    1UNL    C10   13  -0.254   0.125   0.173
    1UNL     O4   14  -0.175   0.156  -0.046
    1UNL     H1   15   0.379   0.176   0.121
    1UNL     H2   16   0.247   0.149   0.224
    1UNL     H3   17   0.400   0.063   0.253
    1UNL     H4   18   0.444  -0.043  -0.038
    1UNL     H5   19   0.127  -0.123   0.197
    1UNL     H6   20   0.058   0.093  -0.022
    1UNL     H7   21   0.028   0.098   0.157
    1UNL     H8   22  -0.142  -0.114   0.138
    1UNL     H9   23  -0.023  -0.161  -0.065
    1UNL    H10   24  -0.334  -0.050  -0.134
    1UNL    H11   25  -0.365  -0.122   0.024
    1UNL    H12   26  -0.449   0.033  -0.015
    1UNL    H13   27  -0.276   0.056   0.257
    1UNL    H14   28  -0.341   0.184   0.157
    1UNL    H15   29  -0.169   0.197   0.195
    1UNL    H16   30  -0.148   0.102  -0.127
   0.00000   0.00000   0.00000   0.00000   0.00000   0.00000   0.00000   0.00000   0.00000
Generated with MDTraj, t= 88.0
 30
    1UNL     C1    1   0.319   0.093   0.190
    1UNL     C2    2   0.275  -0.013   0.098
    1UNL     C3    3   0.351  -0.066   0.006
    1UNL     C4    4   0.269  -0.160  -0.070
    1UNL     O1    5   0.312  -0.220  -0.164
    1UNL     O2    6   0.147  -0.174  -0.017
    1UNL     C5    7   0.138  -0.085   0.097
    1UNL     C6    8   0.027   0.016   0.088
    1UNL     C7    9  -0.111  -0.053   0.053
    1UNL     O3   10  -0.104  -0.112  -0.080
    1UNL     C8   11  -0.225   0.059   0.039
    1UNL     C9   12  -0.359  -0.010   0.007
    1UNL    C10   13  -0.226   0.145   0.167
    1UNL     O4   14  -0.190   0.128  -0.080
    1UNL     H1   15   0.310   0.182   0.127
    1UNL     H2   16   0.266   0.093   0.284
    1UNL     H3   17   0.421   0.082   0.213
    1UNL     H4   18   0.447  -0.029  -0.024
    1UNL     H5   19   0.135  -0.146   0.192
    1UNL     H6   20   0.050   0.091   0.010
    1UNL     H7   21   0.016   0.074   0.187
    1UNL     H8   22  -0.141  -0.139   0.125
    1UNL     H9   23  -0.015  -0.148  -0.083
    1UNL    H10   24  -0.342  -0.108  -0.049
    1UNL    H11   25  -0.411  -0.024   0.098
    1UNL    H12   26  -0.429   0.058  -0.054
    1UNL    H13   27  -0.219   0.073   0.252
    1UNL    H14   28  -0.316   0.208   0.169
    1UNL    H15   29  -0.136   0.208   0.173
    1UNL    H16   30  -0.165   0.059  -0.151
   0.00000   0.00000   0.00000   0.00000   0.00000   0.00000   0.00000   0.00000   0.00000
Generated with MDTraj, t= 89.0
 30
    1UNL     C1    1   0.304   0.068   0.227
    1UNL     C2    2   0.275  -0.017   0.104
    1UNL     C3    3   0.351  -0.064   0.009
    1UNL     C4    4   0.277  -0.162  -0.077
    1UNL     O1    5   0.326  -0.209  -0.179
    1UNL     O2    6   0.152  -0.186  -0.015
    1UNL     C5    7   0.137  -0.085   0.087
    1UNL     C6    8   0.037   0.026   0.047
    1UNL     C7    9  -0.102  -0.034   0.050
    1UNL     O3   10  -0.116  -0.131  -0.053
    1UNL     C8   11  -0.217   0.065   0.033
    1UNL     C9   12  -0.347  -0.012   0.038
    1UNL    C10   13  -0.223   0.159   0.153
    1UNL     O4   14  -0.219   0.130  -0.098
    1UNL     H1   15   0.244   0.153   0.203
    1UNL     H2   16   0.295   0.015   0.322
    1UNL     H3   17   0.403   0.109   0.225
    1UNL     H4   18   0.447  -0.023  -0.016
    1UNL     H5   19   0.117  -0.124   0.188
    1UNL     H6   20   0.062   0.067  -0.051
    1UNL     H7   21   0.039   0.107   0.127
    1UNL     H8   22  -0.122  -0.090   0.150
    1UNL     H9   23  -0.029  -0.181  -0.039
    1UNL    H10   24  -0.357  -0.063  -0.064
    1UNL    H11   25  -0.360  -0.081   0.118
    1UNL    H12   26  -0.434   0.060   0.052
    1UNL    H13   27  -0.252   0.104   0.247
    1UNL    H14   28  -0.287   0.244   0.119
    1UNL    H15   29  -0.131   0.200   0.187
    1UNL    H16   30  -0.216   0.077  -0.177
   0.00000   0.00000   0.00000   0.00000   0.00000   0.00000   0.00000   0.00000   0.00000
Generated with MDTraj, t= 90.0
 30
    1UNL     C1    1   0.313   0.049   0.225
    1UNL     C2    2   0.279  -0.022   0.102
    1UNL     C3    3   0.362  -0.074   0.016
    1UNL     C4    4   0.286  -0.152  -0.079
    1UNL     O1    5   0.337  -0.213  -0.171
    1UNL     O2    6   0.153  -0.147  -0.054
    1UNL     C5    7   0.139  -0.079   0.070
    1UNL     C6    8   0.025   0.027   0.078
    1UNL     C7    9  -0.116  -0.034   0.066
    1UNL     O3   10  -0.116  -0.141  -0.026
    1UNL     C8   11  -0.237   0.063   0.026
    1UNL     C9   12  -0.372  -0.004   0.039
    1UNL    C10   13  -0.223   0.173   0.139
    1UNL     O4   14  -0.201   0.105  -0.107
    1UNL     H1   15   0.241   0.124   0.232
    1UNL     H2   16   0.336  -0.010   0.313
    1UNL     H3   17   0.402   0.111   0.208
    1UNL     H4   18   0.468  -0.056   0.007
    1UNL     H5   19   0.119  -0.156   0.145
    1UNL     H6   20   0.034   0.106   0.001
    1UNL     H7   21   0.027   0.070   0.178
    1UNL     H8   22  -0.163  -0.065   0.167
    1UNL     H9   23  -0.037  -0.139  -0.078
    1UNL    H10   24  -0.380  -0.092  -0.029
    1UNL    H11   25  -0.389  -0.039   0.146
    1UNL    H12   26  -0.454   0.068   0.023
    1UNL    H13   27  -0.185   0.125   0.233
    1UNL    H14   28  -0.312   0.241   0.155
    1UNL    H15   29  -0.140   0.239   0.138
    1UNL    H16   30  -0.184   0.030  -0.169
   0.00000   0.00000   0.00000   0.00000   0.00000   0.00000   0.00000   0.00000   0.00000
Generated with MDTraj, t= 91.0
 30
    1UNL     C1    1   0.312   0.049   0.230
    1UNL     C2    2   0.270  -0.026   0.109
    1UNL     C3    3   0.351  -0.071   0.013
    1UNL     C4    4   0.278  -0.148  -0.086
    1UNL     O1    5   0.336  -0.188  -0.188
    1UNL     O2    6   0.149  -0.163  -0.041
    1UNL     C5    7   0.134  -0.084   0.083
    1UNL     C6    8   0.028   0.026   0.072
    1UNL     C7    9  -0.110  -0.037   0.073
    1UNL     O3   10  -0.124  -0.146  -0.024
    1UNL     C8   11  -0.221   0.062   0.033
    1UNL     C9   12  -0.361   0.000   0.033
    1UNL    C10   13  -0.222   0.181   0.123
    1UNL     O4   14  -0.192   0.098  -0.103
    1UNL     H1   15   0.228   0.079   0.283
    1UNL     H2   16   0.381  -0.001   0.297
    1UNL     H3   17   0.361   0.140   0.194
    1UNL     H4   18   0.457  -0.057   0.009
    1UNL     H5   19   0.114  -0.157   0.160
    1UNL     H6   20   0.042   0.074  -0.026
    1UNL     H7   21   0.039   0.099   0.148
    1UNL     H8   22  -0.130  -0.075   0.176
    1UNL     H9   23  -0.038  -0.197  -0.013
    1UNL    H10   24  -0.359  -0.104   0.001
    1UNL    H11   25  -0.413   0.004   0.140
    1UNL    H12   26  -0.421   0.065  -0.032
    1UNL    H13   27  -0.238   0.155   0.231
    1UNL    H14   28  -0.298   0.256   0.088
    1UNL    H15   29  -0.130   0.232   0.140
    1UNL    H16   30  -0.202   0.012  -0.156
   0.00000   0.00000   0.00000   0.00000   0.00000   0.00000   0.00000   0.00000   0.00000
Generated with MDTraj, t= 92.0
 30
    1UNL     C1    1   0.322   0.049   0.232
    1UNL     C2    2   0.269  -0.027   0.115
    1UNL     C3    3   0.344  -0.049   0.005
    1UNL     C4    4   0.264  -0.141  -0.078
    1UNL     O1    5   0.303  -0.175  -0.190
    1UNL     O2    6   0.146  -0.179  -0.011
    1UNL     C5    7   0.135  -0.088   0.096
    1UNL     C6    8   0.030   0.012   0.056
    1UNL     C7    9  -0.108  -0.044   0.064
    1UNL     O3   10  -0.123  -0.152  -0.027
    1UNL     C8   11  -0.214   0.067   0.028
    1UNL     C9   12  -0.349  -0.007   0.020
    1UNL    C10   13  -0.209   0.179   0.126
    1UNL     O4   14  -0.188   0.110  -0.106
    1UNL     H1   15   0.285   0.016   0.326
    1UNL     H2   16   0.430   0.039   0.242
    1UNL     H3   17   0.312   0.154   0.204
    1UNL     H4   18   0.448  -0.020  -0.003
    1UNL     H5   19   0.112  -0.145   0.188
    1UNL     H6   20   0.047   0.049  -0.044
    1UNL     H7   21   0.040   0.094   0.121
    1UNL     H8   22  -0.117  -0.092   0.162
    1UNL     H9   23  -0.037  -0.195  -0.024
    1UNL    H10   24  -0.345  -0.078  -0.065
    1UNL    H11   25  -0.362  -0.069   0.113
    1UNL    H12   26  -0.431   0.069   0.013
    1UNL    H13   27  -0.221   0.146   0.230
    1UNL    H14   28  -0.285   0.253   0.100
    1UNL    H15   29  -0.114   0.234   0.110
    1UNL    H16   30  -0.167   0.024  -0.148
   0.00000   0.00000   0.00000   0.00000   0.00000   0.00000   0.00000   0.00000   0.00000
Generated with MDTraj, t= 93.0
 30
    1UNL     C1    1   0.324   0.077   0.208
    1UNL     C2    2   0.273  -0.029   0.111
    1UNL     C3    3   0.342  -0.059  -0.000
    1UNL     C4    4   0.265  -0.152  -0.077
    1UNL     O1    5   0.308  -0.191  -0.183
    1UNL     O2    6   0.146  -0.178  -0.024
    1UNL     C5    7   0.142  -0.101   0.097
    1UNL     C6    8   0.025   0.007   0.111
    1UNL     C7    9  -0.115  -0.042   0.068
    1UNL     O3   10  -0.108  -0.136  -0.044
    1UNL     C8   11  -0.224   0.060   0.030
    1UNL     C9   12  -0.362  -0.013   0.004
    1UNL    C10   13  -0.217   0.181   0.126
    1UNL     O4   14  -0.180   0.120  -0.091
    1UNL     H1   15   0.324   0.046   0.314
    1UNL     H2   16   0.426   0.097   0.188
    1UNL     H3   17   0.285   0.174   0.180
    1UNL     H4   18   0.438  -0.018  -0.028
    1UNL     H5   19   0.132  -0.176   0.178
    1UNL     H6   20   0.045   0.089   0.050
    1UNL     H7   21   0.013   0.052   0.207
    1UNL     H8   22  -0.162  -0.107   0.139
    1UNL     H9   23  -0.018  -0.158  -0.068
    1UNL    H10   24  -0.349  -0.096  -0.072
    1UNL    H11   25  -0.388  -0.060   0.097
    1UNL    H12   26  -0.444   0.065  -0.016
    1UNL    H13   27  -0.211   0.144   0.228
    1UNL    H14   28  -0.305   0.244   0.122
    1UNL    H15   29  -0.133   0.251   0.087
    1UNL    H16   30  -0.117   0.056  -0.131
   0.00000   0.00000   0.00000   0.00000   0.00000   0.00000   0.00000   0.00000   0.00000
Generated with MDTraj, t= 94.0
 30
    1UNL     C1    1   0.308   0.082   0.207
    1UNL     C2    2   0.270  -0.012   0.100
    1UNL     C3    3   0.349  -0.062   0.003
    1UNL     C4    4   0.274  -0.166  -0.072
    1UNL     O1    5   0.318  -0.222  -0.171
    1UNL     O2    6   0.149  -0.181  -0.008
    1UNL     C5    7   0.138  -0.078   0.090
    1UNL     C6    8   0.026   0.019   0.039
    1UNL     C7    9  -0.108  -0.046   0.053
    1UNL     O3   10  -0.114  -0.140  -0.055
    1UNL     C8   11  -0.218   0.059   0.037
    1UNL     C9   12  -0.346  -0.006   0.007
    1UNL    C10   13  -0.231   0.146   0.170
    1UNL     O4   14  -0.186   0.153  -0.071
    1UNL     H1   15   0.260   0.050   0.302
    1UNL     H2   16   0.411   0.081   0.231
    1UNL     H3   17   0.291   0.185   0.188
    1UNL     H4   18   0.451  -0.041  -0.024
    1UNL     H5   19   0.106  -0.126   0.186
    1UNL     H6   20   0.041   0.043  -0.060
    1UNL     H7   21   0.023   0.111   0.092
    1UNL     H8   22  -0.129  -0.102   0.140
    1UNL     H9   23  -0.034  -0.202  -0.049
    1UNL    H10   24  -0.314  -0.103  -0.046
    1UNL    H11   25  -0.407  -0.038   0.088
    1UNL    H12   26  -0.407   0.065  -0.059
    1UNL    H13   27  -0.302   0.106   0.242
    1UNL    H14   28  -0.266   0.245   0.145
    1UNL    H15   29  -0.125   0.177   0.206
    1UNL    H16   30  -0.202   0.107  -0.161
   0.00000   0.00000   0.00000   0.00000   0.00000   0.00000   0.00000   0.00000   0.00000
Generated with MDTraj, t= 95.0
 30
    1UNL     C1    1   0.320   0.098   0.175
    1UNL     C2    2   0.277  -0.008   0.086
    1UNL     C3    3   0.362  -0.083   0.021
    1UNL     C4    4   0.283  -0.183  -0.062
    1UNL     O1    5   0.334  -0.256  -0.142
    1UNL     O2    6   0.150  -0.169  -0.030
    1UNL     C5    7   0.143  -0.069   0.076
    1UNL     C6    8   0.027   0.029   0.069
    1UNL     C7    9  -0.110  -0.040   0.044
    1UNL     O3   10  -0.116  -0.114  -0.084
    1UNL     C8   11  -0.231   0.060   0.044
    1UNL     C9   12  -0.359  -0.007   0.007
    1UNL    C10   13  -0.248   0.136   0.179
    1UNL     O4   14  -0.198   0.152  -0.056
    1UNL     H1   15   0.234   0.117   0.242
    1UNL     H2   16   0.395   0.066   0.244
    1UNL     H3   17   0.347   0.190   0.132
    1UNL     H4   18   0.469  -0.069   0.017
    1UNL     H5   19   0.124  -0.138   0.162
    1UNL     H6   20   0.047   0.098  -0.007
    1UNL     H7   21   0.026   0.073   0.165
    1UNL     H8   22  -0.123  -0.117   0.114
    1UNL     H9   23  -0.023  -0.130  -0.097
    1UNL    H10   24  -0.377  -0.012  -0.105
    1UNL    H11   25  -0.357  -0.119   0.024
    1UNL    H12   26  -0.448   0.031   0.059
    1UNL    H13   27  -0.237   0.057   0.258
    1UNL    H14   28  -0.351   0.164   0.201
    1UNL    H15   29  -0.198   0.237   0.190
    1UNL    H16   30  -0.203   0.099  -0.140
   0.00000   0.00000   0.00000   0.00000   0.00000   0.00000   0.00000   0.00000   0.00000
Generated with MDTraj, t= 96.0
 30
    1UNL     C1    1   0.319   0.110   0.177
    1UNL     C2    2   0.279  -0.008   0.082
    1UNL     C3    3   0.358  -0.083   0.008
    1UNL     C4    4   0.277  -0.186  -0.057
    1UNL     O1    5   0.320  -0.272  -0.130
    1UNL     O2    6   0.148  -0.178  -0.016
    1UNL     C5    7   0.142  -0.069   0.081
    1UNL     C6    8   0.033   0.036   0.063
    1UNL     C7    9  -0.105  -0.034   0.032
    1UNL     O3   10  -0.095  -0.073  -0.106
    1UNL     C8   11  -0.235   0.054   0.044
    1UNL     C9   12  -0.358  -0.038   0.014
    1UNL    C10   13  -0.241   0.115   0.185
    1UNL     O4   14  -0.212   0.169  -0.050
    1UNL     H1   15   0.226   0.164   0.190
    1UNL     H2   16   0.338   0.069   0.276
    1UNL     H3   17   0.388   0.185   0.145
    1UNL     H4   18   0.463  -0.074  -0.015
    1UNL     H5   19   0.132  -0.127   0.173
    1UNL     H6   20   0.054   0.095  -0.023
    1UNL     H7   21   0.021   0.090   0.152
    1UNL     H8   22  -0.115  -0.128   0.080
    1UNL     H9   23  -0.022  -0.144  -0.115
    1UNL    H10   24  -0.336  -0.132  -0.042
    1UNL    H11   25  -0.419  -0.076   0.106
    1UNL    H12   26  -0.431   0.024  -0.035
    1UNL    H13   27  -0.252   0.036   0.263
    1UNL    H14   28  -0.331   0.180   0.199
    1UNL    H15   29  -0.162   0.187   0.195
    1UNL    H16   30  -0.164   0.131  -0.123
   0.00000   0.00000   0.00000   0.00000   0.00000   0.00000   0.00000   0.00000   0.00000
Generated with MDTraj, t= 97.0
 30
    1UNL     C1    1   0.336   0.099   0.180
    1UNL     C2    2   0.286  -0.008   0.093
    1UNL     C3    3   0.353  -0.082   0.007
    1UNL     C4    4   0.258  -0.178  -0.057
    1UNL     O1    5   0.292  -0.258  -0.145
    1UNL     O2    6   0.140  -0.166   0.009
    1UNL     C5    7   0.144  -0.053   0.095
    1UNL     C6    8   0.034   0.044   0.057
    1UNL     C7    9  -0.100  -0.038   0.028
    1UNL     O3   10  -0.091  -0.100  -0.102
    1UNL     C8   11  -0.221   0.050   0.037
    1UNL     C9   12  -0.349  -0.034   0.000
    1UNL    C10   13  -0.233   0.101   0.179
    1UNL     O4   14  -0.220   0.167  -0.053
    1UNL     H1   15   0.274   0.182   0.163
    1UNL     H2   16   0.335   0.066   0.285
    1UNL     H3   17   0.433   0.134   0.143
    1UNL     H4   18   0.455  -0.060  -0.021
    1UNL     H5   19   0.124  -0.095   0.194
    1UNL     H6   20   0.055   0.100  -0.032
    1UNL     H7   21   0.013   0.107   0.137
    1UNL     H8   22  -0.112  -0.127   0.090
    1UNL     H9   23  -0.006  -0.141  -0.120
    1UNL    H10   24  -0.346  -0.055  -0.108
    1UNL    H11   25  -0.342  -0.141   0.046
    1UNL    H12   26  -0.443   0.005   0.041
    1UNL    H13   27  -0.243   0.018   0.254
    1UNL    H14   28  -0.324   0.168   0.190
    1UNL    H15   29  -0.154   0.167   0.199
    1UNL    H16   30  -0.145   0.152  -0.116
   0.00000   0.00000   0.00000   0.00000   0.00000   0.00000   0.00000   0.00000   0.00000
Generated with MDTraj, t= 98.0
 30
    1UNL     C1    1   0.344   0.103   0.172
    1UNL     C2    2   0.282  -0.002   0.089
    1UNL     C3    3   0.350  -0.065  -0.007
    1UNL     C4    4   0.261  -0.169  -0.059
    1UNL     O1    5   0.291  -0.243  -0.154
    1UNL     O2    6   0.144  -0.181   0.012
    1UNL     C5    7   0.147  -0.081   0.108
    1UNL     C6    8   0.030   0.022   0.083
    1UNL     C7    9  -0.100  -0.042   0.034
    1UNL     O3   10  -0.093  -0.116  -0.088
    1UNL     C8   11  -0.222   0.055   0.033
    1UNL     C9   12  -0.350  -0.016  -0.015
    1UNL    C10   13  -0.251   0.115   0.178
    1UNL     O4   14  -0.208   0.162  -0.060
    1UNL     H1   15   0.303   0.198   0.159
    1UNL     H2   16   0.354   0.078   0.278
    1UNL     H3   17   0.445   0.120   0.127
    1UNL     H4   18   0.448  -0.045  -0.047
    1UNL     H5   19   0.147  -0.122   0.209
    1UNL     H6   20   0.067   0.098   0.015
    1UNL     H7   21   0.014   0.078   0.175
    1UNL     H8   22  -0.122  -0.121   0.113
    1UNL     H9   23  -0.019  -0.184  -0.085
    1UNL    H10   24  -0.319  -0.065  -0.111
    1UNL    H11   25  -0.386  -0.092   0.056
    1UNL    H12   26  -0.432   0.061  -0.021
    1UNL    H13   27  -0.253   0.041   0.259
    1UNL    H14   28  -0.355   0.159   0.184
    1UNL    H15   29  -0.191   0.202   0.207
    1UNL    H16   30  -0.136   0.133  -0.126
   0.00000   0.00000   0.00000   0.00000   0.00000   0.00000   0.00000   0.00000   0.00000
Generated with MDTraj, t= 99.0
 30
    1UNL     C1    1   0.303   0.115   0.176
    1UNL     C2    2   0.276  -0.010   0.098
    1UNL     C3    3   0.337  -0.062  -0.012
    1UNL     C4    4   0.259  -0.167  -0.071
    1UNL     O1    5   0.297  -0.239  -0.163
    1UNL     O2    6   0.142  -0.181  -0.005
    1UNL     C5    7   0.143  -0.084   0.101
    1UNL     C6    8   0.021   0.014   0.088
    1UNL     C7    9  -0.107  -0.052   0.051
    1UNL     O3   10  -0.093  -0.116  -0.078
    1UNL     C8   11  -0.217   0.055   0.036
    1UNL     C9   12  -0.339  -0.020   0.001
    1UNL    C10   13  -0.242   0.136   0.166
    1UNL     O4   14  -0.165   0.151  -0.061
    1UNL     H1   15   0.255   0.202   0.138
    1UNL     H2   16   0.293   0.114   0.283
    1UNL     H3   17   0.407   0.144   0.151
    1UNL     H4   18   0.421  -0.015  -0.058
    1UNL     H5   19   0.140  -0.143   0.194
    1UNL     H6   20   0.056   0.083   0.013
    1UNL     H7   21   0.024   0.085   0.175
    1UNL     H8   22  -0.126  -0.124   0.139
    1UNL     H9   23  -0.003  -0.158  -0.082
    1UNL    H10   24  -0.301  -0.104  -0.066
    1UNL    H11   25  -0.384  -0.064   0.086
    1UNL    H12   26  -0.417   0.055  -0.042
    1UNL    H13   27  -0.312   0.085   0.231
    1UNL    H14   28  -0.289   0.235   0.152
    1UNL    H15   29  -0.149   0.155   0.231
    1UNL    H16   30  -0.116   0.095  -0.124
   0.00000   0.00000   0.00000   0.00000   0.00000   0.00000   0.00000   0.00000   0.00000
