[ moleculetype ]
; name        nrexcl
res           1

[ atoms ]
;    nr  type  resnr resid  atom  cgnr     charge       mass
      1 TX3       1 res   C1        1      0.000     36.000
      2 TC5       1 res   C2        2      0.000     36.000
      3 SN2a      1 res   C3        3      0.000     54.000
      4 TX3       1 res   C4        4      0.000     36.000
      5 TX2       1 res   C5        5      0.000     36.000

[ bonds ]
;  ai    aj   funct      b0(nm)          k(kJ/mol/nm^2)
    1     2     1      0.28368         151270.3
    1     5     1      0.22914          55402.3
    2     3     1      0.23601         104457.7
    2     4     1      0.28481         157768.5
    4     5     1      0.22929          57404.5

[ angles ]
;  ai    aj    ak  funct     th0(deg)        k(kJ/mol/rad^2)
    1     2     3     1    115.05365          1187.35
    1     2     4     1     86.45206          5418.96
    1     5     4     1    116.26333          2935.13
    2     1     5     1     78.66709          2636.73
    2     4     5     1     78.39235          3013.21
    3     2     4     1    157.27711          1245.61

[ dihedrals ]
;  ai    aj    ak    al  funct   phi0(deg)        k(kJ/mol)   mult
    1     2     4     5     1    179.98923        6.297      1
    1     2     4     5     1    179.97849        6.238      2
    1     2     4     5     1    179.96779        6.142      3
    1     5     4     2     1   -179.98801        7.833      1
    1     5     4     2     1   -179.97599        7.718      2
    1     5     4     2     1   -179.96395        7.529      3
    2     1     5     4     1    179.98801        7.833      1
    2     1     5     4     1    179.97599        7.718      2
    2     1     5     4     1    179.96395        7.529      3
    3     2     1     5     1     -1.52440       12.257      1
    3     2     1     5     1    176.91840       11.735      2
    3     2     1     5     1     -4.71026       10.896      3
    3     2     4     5     1     -1.34021       23.782      1
    3     2     4     5     1    176.39917       18.721      2
    3     2     4     5     1     -8.07246       12.164      3
    4     2     1     5     1   -179.98970        6.297      1
    4     2     1     5     1   -179.97941        6.238      2
    4     2     1     5     1   -179.96918        6.142      3
