[ moleculetype ]
; name        nrexcl
res           1

[ atoms ]
;    nr  type resnr resid  atom  cgnr     charge       mass
      1 TC3       1 res   C1        1      0.000     36.000
      2 TN6d      1 res   C2        2      0.000     36.000
      3 SN6       1 res   C3        3      0.000     54.000
      4 TX3       1 res   C4        4      0.000     36.000
      5 SN6       1 res   C5        5      0.000     54.000
      6 TC5       1 res   C6        6      0.000     36.000
      7 TC5       1 res   C7        7      0.000     36.000
      8 SC3       1 res   C8        8      0.000     54.000
      9 TC3       1 res   C9        9      0.000     36.000
     10 TN3r      1 res   C10      10      0.000     36.000
     11 TN6       1 res   C11      11      0.000     36.000
     12 TN3r      1 res   C12      12      0.000     36.000
     13 SN4       1 res   C13      13      0.000     54.000
     14 TN3r      1 res   C14      14      0.000     36.000

[ bonds ]
;  ai    aj   funct      b0(nm)        k
    1     2     1      0.26581    20000
    2     3     1      0.24925    20000
    2     6     1      0.28838    20000
    3     4     1      0.22913    20000
    3     6     1      0.33824    20000
    3    13     1      0.32564    20000
    4     5     1      0.28878    20000
    5     6     1      0.26918    20000
    6     7     1      0.22171    20000
    6    13     1      0.26651    20000
    7     8     1      0.21931    20000
    7    11     1      0.27832    20000
    8     9     1      0.27769    20000
    8    12     1      0.34931    20000
    9    10     1      0.30680    20000
    9    11     1      0.29407    20000
   11    13     1      0.28059    20000
   13    14     1      0.31864    20000
