1TPCN00047
23
    1res  C1    1   -0.671  -0.327  -0.000
    1res  C2    2   -0.563  -0.147   0.134
    1res  C3    3   -0.781  -0.015   0.215
    1res  C4    4   -1.037   0.027   0.093
    1res  C5    5   -0.878   0.248  -0.024
    1res  C6    6   -0.891   0.452  -0.083
    1res  C7    7   -1.073   0.160  -0.194
    1res  C8    8   -0.572   0.042   0.334
    1res  C9    9   -0.291  -0.046   0.494
    1res  C10   10   -0.294   0.031   0.047
    1res  C11   11   -0.008  -0.193   0.139
    1res  C12   12    0.093  -0.252  -0.098
    1res  C13   13    0.411  -0.248   0.015
    1res  C14   14    0.486  -0.030  -0.029
    1res  C15   15    0.592   0.142   0.121
    1res  C16   16    0.671  -0.158   0.330
    1res  C17   17    0.516   0.149  -0.136
    1res  C18   18    0.752   0.298  -0.197
    1res  C19   19    0.912   0.136  -0.010
    1res  C20   20    1.061  -0.043  -0.043
    1res  C21   21    1.032   0.362  -0.120
    1res  C22   22    0.713  -0.199  -0.155
    1res  C23   23   -0.089  -0.088  -0.309
  10.00000  10.00000  10.00000
