1TPCN04976
13
    1res  C1    1   -0.625   0.193  -0.025
    1res  C2    2   -0.529  -0.077  -0.137
    1res  C3    3   -0.411  -0.128   0.117
    1res  C4    4   -0.190  -0.253   0.024
    1res  C5    5   -0.069  -0.033   0.199
    1res  C6    6   -0.026   0.186  -0.082
    1res  C7    7    0.074  -0.072  -0.082
    1res  C8    8    0.328   0.055  -0.120
    1res  C9    9    0.409   0.271  -0.004
    1res  C10   10    0.640   0.143  -0.028
    1res  C11   11    0.601  -0.086   0.002
    1res  C12   12    0.257  -0.211   0.074
    1res  C13   13   -0.378   0.241   0.063
  10.00000  10.00000  10.00000
