[ moleculetype ]
; name        nrexcl
res           1

[ atoms ]
;    nr  type  resnr resid  atom  cgnr     charge       mass
      1 TC5       1 res   C1        1      0.000     36.000
      2 TC5       1 res   C2        2      0.000     36.000
      3 TN6a      1 res   C3        3      0.000     36.000
      4 TC5       1 res   C4        4      0.000     36.000

[ constraints ]
;  ai    aj   funct      b0(nm)
    1     2     1      0.25542
    3     4     1      0.28679
    2     3     1      0.22046
    2     4     1      0.29302

[ bonds ]
;  ai    aj   funct      b0(nm)          k(kJ/mol/nm^2)

[ angles ]
;  ai    aj    ak  funct     th0(deg)        k(kJ/mol/rad^2)
    1     2     3     1    164.33853           852.39
    1     2     4     1     99.80638          1404.03
    2     3     4     1     69.15795          7574.91
    2     4     3     1     44.68062         10823.86
    3     2     4     1     66.16139          8609.86

[ dihedrals ]
;  ai    aj    ak    al  funct   phi0(deg)        k(kJ/mol)   mult
    1     2     3     4     1    179.75571       29.733      1
    1     2     4     3     1     -1.04689       12.936      1
