1TPCN03425
14
    1res  C1    1    1.077   0.020   0.052
    1res  C2    2    0.820  -0.324  -0.088
    1res  C3    3    0.624  -0.008  -0.185
    1res  C4    4    0.313   0.155   0.043
    1res  C5    5   -0.080   0.231   0.247
    1res  C6    6   -0.424   0.189   0.146
    1res  C7    7   -0.434  -0.042   0.089
    1res  C8    8   -0.718  -0.122   0.168
    1res  C9    9   -0.719  -0.058  -0.203
    1res  C10   10   -0.974  -0.027  -0.105
    1res  C11   11   -1.092  -0.250  -0.022
    1res  C12   12   -1.183  -0.006  -0.032
    1res  C13   13   -0.855   0.171  -0.060
    1res  C14   14   -0.363  -0.053  -0.125
  10.00000  10.00000  10.00000
