1TPCN05760
30
    1res  C1    1   -0.350   0.163   0.236
    1res  C2    2   -0.131  -0.004   0.234
    1res  C3    3   -0.222  -0.013  -0.051
    1res  C4    4   -0.002  -0.100  -0.055
    1res  C5    5    0.235   0.057  -0.009
    1res  C6    6    0.424   0.227   0.144
    1res  C7    7    0.705   0.170   0.009
    1res  C8    8    0.939   0.303   0.092
    1res  C9    9    0.917   0.001  -0.008
    1res  C10   10    1.084  -0.098  -0.035
    1res  C11   11    1.275  -0.042  -0.254
    1res  C12   12    1.425  -0.182  -0.084
    1res  C13   13    1.331  -0.264   0.089
    1res  C14   14    1.144  -0.162   0.193
    1res  C15   15    0.772  -0.133   0.104
    1res  C16   16    0.596  -0.063  -0.075
    1res  C17   17    0.282   0.316  -0.153
    1res  C18   18    0.350   0.161  -0.295
    1res  C19   19    0.111   0.043  -0.246
    1res  C20   20   -0.323  -0.263   0.044
    1res  C21   21   -0.423  -0.179  -0.189
    1res  C22   22   -0.566   0.094  -0.213
    1res  C23   23   -0.687  -0.176  -0.122
    1res  C24   24   -0.903  -0.036  -0.095
    1res  C25   25   -0.922   0.229  -0.018
    1res  C26   26   -1.174   0.104   0.015
    1res  C27   27   -1.129  -0.134   0.097
    1res  C28   28   -1.050  -0.022   0.325
    1res  C29   29   -0.760  -0.218   0.115
    1res  C30   30   -0.185   0.245  -0.032
  10.00000  10.00000  10.00000
