[ moleculetype ]
; name        nrexcl
res           1

[ atoms ]
;    nr  type resnr resid  atom  cgnr     charge       mass
      1 TC4       1 res   C1        1      0.000     36.000
      2 TN6a      1 res   C2        2      0.000     36.000
      3 TN4a      1 res   C3        3      0.000     36.000
      4 SC2       1 res   C4        4      0.000     54.000
      5 TC3       1 res   C5        5      0.000     36.000
      6 SC4       1 res   C6        6      0.000     54.000
      7 TN4a      1 res   C7        7      0.000     36.000
      8 TC4       1 res   C8        8      0.000     36.000

[ bonds ]
;  ai    aj   funct      b0(nm)        k
    1     2     1      0.26091    20000
    1     8     1      0.26667    20000
    2     3     1      0.26470    20000
    3     4     1      0.33183    20000
    3     8     1      0.25481    20000
    4     5     1      0.29092    20000
    5     6     1      0.32956    20000
    5     7     1      0.23763    20000
    6     7     1      0.21526    20000
    7     8     1      0.23931    20000
