1TPCN01264
8
    1res  C1    1    0.326  -0.222  -0.104
    1res  C2    2    0.457  -0.003  -0.052
    1res  C3    3    0.236   0.097   0.055
    1res  C4    4   -0.034   0.254  -0.058
    1res  C5    5   -0.195   0.110   0.137
    1res  C6    6   -0.249  -0.178  -0.014
    1res  C7    7   -0.101  -0.108   0.125
    1res  C8    8    0.108  -0.118   0.009
  10.00000  10.00000  10.00000
