[ moleculetype ]
; name        nrexcl
res           1

[ atoms ]
;    nr  type resnr resid  atom  cgnr     charge       mass
      1 SN4a      1 res   C1        1      0.000     54.000
      2 SN3r      1 res   C2        2      0.000     54.000
      3 SP1       1 res   C3        3      0.000     54.000
      4 SN4a      1 res   C4        4      0.000     54.000
      5 SC3       1 res   C5        5      0.000     54.000
      6 SC4       1 res   C6        6      0.000     54.000
      7 SN6a      1 res   C7        7      0.000     54.000
      8 TC3       1 res   C8        8      0.000     36.000
      9 SC2       1 res   C9        9      0.000     54.000
     10 TC4       1 res   C10      10      0.000     36.000
     11 SN4a      1 res   C11      11      0.000     54.000

[ bonds ]
;  ai    aj   funct      b0(nm)        k
    1     2     1      0.40071    20000
    2     3     1      0.31684    20000
    3     4     1      0.25848    20000
    4     5     1      0.30481    20000
    5     6     1      0.26705    20000
    5    10     1      0.38204    20000
    6     7     1      0.26079    20000
    6     8     1      0.26152    20000
    6    10     1      0.39084    20000
    7     8     1      0.32639    20000
    8     9     1      0.29076    20000
   10    11     1      0.38133    20000
