1TPCN05579
41
    1res  C1    1    0.341  -0.070   0.373
    1res  C2    2    0.504   0.139   0.213
    1res  C3    3    0.239   0.153   0.190
    1res  C4    4    0.353  -0.004  -0.027
    1res  C5    5    0.458  -0.227  -0.033
    1res  C6    6    0.753  -0.225  -0.023
    1res  C7    7    0.931   0.040  -0.018
    1res  C8    8    1.014   0.306  -0.129
    1res  C9    9    1.164   0.085  -0.022
    1res  C10   10    1.371   0.127  -0.063
    1res  C11   11    1.510   0.161  -0.280
    1res  C12   12    1.689   0.055  -0.100
    1res  C13   13    1.661   0.164   0.097
    1res  C14   14    1.428   0.143   0.159
    1res  C15   15    1.135  -0.005   0.175
    1res  C16   16    0.947  -0.111   0.206
    1res  C17   17    0.580  -0.463   0.047
    1res  C18   18    0.394  -0.540  -0.049
    1res  C19   19    0.276  -0.366   0.085
    1res  C20   20    0.212   0.281  -0.042
    1res  C21   21   -0.010   0.286   0.119
    1res  C22   22   -0.124  -0.014   0.206
    1res  C23   23   -0.176   0.218  -0.089
    1res  C24   24   -0.379  -0.054  -0.027
    1res  C25   25   -0.517   0.104  -0.193
    1res  C26   26   -0.683  -0.177  -0.255
    1res  C27   27   -0.924  -0.127  -0.396
    1res  C28   28   -0.926  -0.372  -0.449
    1res  C29   29   -0.914  -0.434  -0.204
    1res  C30   30   -0.832  -0.249  -0.122
    1res  C31   31   -0.950  -0.235   0.056
    1res  C32   32   -1.238  -0.258  -0.067
    1res  C33   33   -1.234  -0.019  -0.001
    1res  C34   34   -0.954  -0.000   0.130
    1res  C35   35   -1.161   0.177   0.165
    1res  C36   36   -1.113   0.323   0.403
    1res  C37   37   -1.361   0.361   0.396
    1res  C38   38   -1.361   0.480   0.207
    1res  C39   39   -1.149   0.389   0.099
    1res  C40   40   -0.386  -0.213  -0.305
    1res  C41   41   -0.076  -0.068  -0.155
  10.00000  10.00000  10.00000
