1TPCN02018
10
    1res  C1    1    0.845   0.014   0.129
    1res  C2    2    0.826  -0.209  -0.043
    1res  C3    3    0.439  -0.088   0.030
    1res  C4    4    0.085  -0.015   0.122
    1res  C5    5   -0.133  -0.003   0.175
    1res  C6    6   -0.281   0.090   0.025
    1res  C7    7   -0.547   0.269   0.086
    1res  C8    8   -0.554  -0.039  -0.025
    1res  C9    9   -0.470  -0.023  -0.231
    1res  C10   10   -0.214  -0.090  -0.186
  10.00000  10.00000  10.00000
