1TPCN05115
28
    1res  C1    1   -0.851   0.186   0.070
    1res  C2    2   -0.742  -0.008  -0.066
    1res  C3    3   -0.665  -0.159   0.032
    1res  C4    4   -0.485  -0.165   0.131
    1res  C5    5   -0.293   0.024   0.296
    1res  C6    6   -0.291   0.016   0.010
    1res  C7    7   -0.040  -0.137  -0.072
    1res  C8    8    0.094   0.053   0.052
    1res  C9    9    0.277   0.230  -0.135
    1res  C10   10    0.332   0.149   0.126
    1res  C11   11    0.420  -0.168  -0.046
    1res  C12   12    0.600   0.102   0.151
    1res  C13   13    0.758  -0.055  -0.097
    1res  C14   14    1.020  -0.214   0.116
    1res  C15   15    1.029  -0.028  -0.132
    1res  C16   16    0.714   0.215  -0.075
    1res  C17   17   -0.089   0.237  -0.142
    1res  C18   18   -0.008   0.086  -0.366
    1res  C19   19   -0.322   0.228   0.087
    1res  C20   20   -0.410   0.472   0.092
    1res  C21   21   -0.383   0.260   0.306
    1res  C22   22   -0.536  -0.382   0.258
    1res  C23   23   -0.710  -0.475   0.363
    1res  C24   24   -0.572  -0.501   0.045
    1res  C25   25   -0.749  -0.347  -0.040
    1res  C26   26   -0.670  -0.025  -0.312
    1res  C27   27   -0.831   0.127  -0.338
    1res  C28   28   -0.950   0.220  -0.158
  10.00000  10.00000  10.00000
