1TPCN05689
41
    1res  C1    1    1.139   0.249  -0.010
    1res  C2    2    0.952  -0.013  -0.045
    1res  C3    3    0.731  -0.004  -0.045
    1res  C4    4    0.618   0.098   0.118
    1res  C5    5    0.734   0.024   0.267
    1res  C6    6    0.392   0.143   0.069
    1res  C7    7    0.105   0.205   0.046
    1res  C8    8   -0.071  -0.065   0.013
    1res  C9    9   -0.157   0.106   0.336
    1res  C10   10   -0.270   0.228   0.129
    1res  C11   11   -0.349   0.159  -0.123
    1res  C12   12   -0.518   0.211   0.231
    1res  C13   13   -0.709   0.181   0.011
    1res  C14   14   -0.965   0.284   0.093
    1res  C15   15   -0.873   0.031   0.226
    1res  C16   16   -0.787  -0.139  -0.078
    1res  C17   17   -0.971  -0.167  -0.203
    1res  C18   18   -1.248  -0.233  -0.118
    1res  C19   19   -1.476  -0.162   0.034
    1res  C20   20   -1.495  -0.069   0.308
    1res  C21   21   -1.758  -0.066   0.096
    1res  C22   22   -1.769  -0.187  -0.090
    1res  C23   23   -1.564  -0.147  -0.220
    1res  C24   24   -1.219  -0.029  -0.322
    1res  C25   25   -1.048   0.085  -0.413
    1res  C26   26   -0.905  -0.111  -0.469
    1res  C27   27   -0.533  -0.088   0.183
    1res  C28   28    0.179  -0.089   0.237
    1res  C29   29    0.495   0.229  -0.124
    1res  C30   30    0.590   0.046  -0.197
    1res  C31   31    0.902  -0.065  -0.283
    1res  C32   32    1.068   0.165  -0.302
    1res  C33   33    1.218  -0.105  -0.284
    1res  C34   34    1.458  -0.221  -0.326
    1res  C35   35    1.511  -0.288  -0.131
    1res  C36   36    1.797  -0.170  -0.005
    1res  C37   37    1.711   0.061   0.041
    1res  C38   38    1.576  -0.070   0.194
    1res  C39   39    1.602  -0.287   0.184
    1res  C40   40    1.302  -0.328  -0.020
    1res  C41   41    1.178  -0.335  -0.198
  10.00000  10.00000  10.00000
