1TPCN05882
18
    1res  C1    1   -0.539   0.397  -0.198
    1res  C2    2   -0.242   0.362   0.004
    1res  C3    3   -0.163   0.128   0.097
    1res  C4    4   -0.094  -0.108  -0.047
    1res  C5    5   -0.044  -0.320   0.086
    1res  C6    6    0.129  -0.559   0.124
    1res  C7    7   -0.138  -0.606   0.112
    1res  C8    8   -0.141  -0.495   0.350
    1res  C9    9   -0.167  -0.267   0.273
    1res  C10   10    0.115   0.194  -0.038
    1res  C11   11    0.200   0.068   0.177
    1res  C12   12    0.352  -0.156  -0.062
    1res  C13   13    0.499   0.025  -0.164
    1res  C14   14    0.795   0.043  -0.047
    1res  C15   15    0.435   0.007  -0.436
    1res  C16   16   -0.310   0.134  -0.284
    1res  C17   17   -0.502   0.032   0.003
    1res  C18   18   -0.603   0.228   0.329
  10.00000  10.00000  10.00000
