[ moleculetype ]
; name        nrexcl
res           1

[ atoms ]
;    nr  type  resnr resid  atom  cgnr     charge       mass
      1 TC5       1 res   C1        1      0.000     36.000
      2 TN2a      1 res   C2        2      0.000     36.000
      3 TN2a      1 res   C3        3      0.000     36.000
      4 TC5       1 res   C4        4      0.000     36.000

[ constraints ]
;  ai    aj   funct      b0(nm)
    1     3     1      0.22402
    1     4     1      0.23943
    3     4     1      0.20829

[ bonds ]
;  ai    aj   funct      b0(nm)          k(kJ/mol/nm^2)
    1     2     1      0.32015           9711.3

[ angles ]
;  ai    aj    ak  funct     th0(deg)        k(kJ/mol/rad^2)
    1     3     4     1     67.15976          2934.77
    1     4     3     1     59.56158          4005.62
    2     1     3     1     57.45089           116.68
    2     1     4     1    109.64389           121.58
    3     1     4     1     53.27857          5629.72

[ dihedrals ]
;  ai    aj    ak    al  funct   phi0(deg)        k(kJ/mol)   mult
    2     1     3     4     1      1.65925       20.383      1
    2     1     4     3     1   -177.27346       18.986      1
