1TPCN02474
13
    1res  C1    1   -0.406  -0.192  -0.210
    1res  C2    2   -0.627  -0.263  -0.008
    1res  C3    3   -0.463  -0.083   0.115
    1res  C4    4   -0.764   0.063   0.134
    1res  C5    5   -0.491   0.206   0.025
    1res  C6    6   -0.111  -0.083  -0.099
    1res  C7    7    0.179   0.001  -0.001
    1res  C8    8    0.421  -0.048   0.175
    1res  C9    9    0.525   0.214   0.329
    1res  C10   10    0.742   0.149   0.184
    1res  C11   11    0.606  -0.081   0.075
    1res  C12   12    0.977  -0.066   0.018
    1res  C13   13    0.594   0.132  -0.239
  10.00000  10.00000  10.00000
