1TPCN05816
15
    1res  C1    1    0.586   0.172   0.026
    1res  C2    2    0.657  -0.052   0.105
    1res  C3    3    0.514  -0.166  -0.077
    1res  C4    4    0.326   0.152   0.011
    1res  C5    5    0.273  -0.096   0.185
    1res  C6    6    0.162  -0.155  -0.149
    1res  C7    7    0.038   0.078  -0.204
    1res  C8    8   -0.090   0.214   0.003
    1res  C9    9   -0.284   0.001  -0.087
    1res  C10   10   -0.469   0.160  -0.012
    1res  C11   11   -0.616   0.178   0.215
    1res  C12   12   -0.509  -0.132   0.010
    1res  C13   13   -0.330  -0.196  -0.249
    1res  C14   14   -0.151  -0.212   0.054
    1res  C15   15   -0.013   0.035   0.207
  10.00000  10.00000  10.00000
