1TPCN05319
47
    1res  C1    1   -0.754   0.474  -0.059
    1res  C2    2   -0.526   0.429  -0.113
    1res  C3    3   -0.411   0.312   0.017
    1res  C4    4   -0.200   0.310   0.054
    1res  C5    5   -0.331   0.232   0.275
    1res  C6    6   -0.241   0.042   0.339
    1res  C7    7   -0.090  -0.216   0.239
    1res  C8    8   -0.235  -0.213   0.488
    1res  C9    9   -0.292  -0.402   0.259
    1res  C10   10    0.041  -0.022   0.090
    1res  C11   11    0.311  -0.259   0.242
    1res  C12   12    0.305   0.114   0.161
    1res  C13   13    0.553   0.061   0.189
    1res  C14   14    0.712  -0.116   0.247
    1res  C15   15    0.830  -0.062   0.028
    1res  C16   16    1.107  -0.061   0.075
    1res  C17   17    1.089   0.152   0.277
    1res  C18   18    1.164   0.212   0.006
    1res  C19   19    1.258   0.057  -0.116
    1res  C20   20    1.512   0.039  -0.227
    1res  C21   21    1.698   0.233  -0.218
    1res  C22   22    1.773  -0.103  -0.244
    1res  C23   23    1.627  -0.251  -0.113
    1res  C24   24    1.470  -0.215  -0.263
    1res  C25   25    1.106  -0.081  -0.179
    1res  C26   26    0.697  -0.006  -0.169
    1res  C27   27    0.698   0.224  -0.022
    1res  C28   28    0.351  -0.018  -0.080
    1res  C29   29    0.076   0.034   0.422
    1res  C30   30   -0.454   0.115   0.045
    1res  C31   31   -0.587   0.006  -0.055
    1res  C32   32   -0.644  -0.033  -0.347
    1res  C33   33   -0.785  -0.171  -0.193
    1res  C34   34   -1.020  -0.389  -0.213
    1res  C35   35   -1.020  -0.626  -0.184
    1res  C36   36   -0.926  -0.595  -0.405
    1res  C37   37   -0.916  -0.369  -0.471
    1res  C38   38   -0.888  -0.010  -0.104
    1res  C39   39   -1.157  -0.031  -0.081
    1res  C40   40   -1.416  -0.207  -0.138
    1res  C41   41   -1.429   0.008   0.042
    1res  C42   42   -1.266   0.130   0.153
    1res  C43   43   -1.066   0.142   0.081
    1res  C44   44   -0.757  -0.036   0.105
    1res  C45   45   -0.352   0.573  -0.209
    1res  C46   46   -0.504   0.736  -0.204
    1res  C47   47   -0.701   0.624  -0.314
  10.00000  10.00000  10.00000
