[ moleculetype ]
; name        nrexcl
res           1

[ atoms ]
;    nr  type  resnr resid  atom  cgnr     charge       mass
      1 SC2       1 res   C1        1      0.000     54.000
      2 TX3       1 res   C2        2      0.000     36.000
      3 TN5       1 res   C3        3      0.000     36.000

[ constraints ]
;  ai    aj   funct      b0(nm)

[ bonds ]
;  ai    aj   funct      b0(nm)          k(kJ/mol/nm^2)
    1     2     1      0.29018          12468.3
    1     3     1      0.37726           7595.9

[ angles ]
;  ai    aj    ak  funct     th0(deg)        k(kJ/mol/rad^2)
    2     1     3     1     58.49394           126.42

[ dihedrals ]
;  ai    aj    ak    al  funct   phi0(deg)        k(kJ/mol)   mult
