[ moleculetype ]
; name        nrexcl
res           1

[ atoms ]
;    nr  type  resnr resid  atom  cgnr     charge       mass
      1 X2        1 res   C1        1      0.000     72.000
      2 TN6a      1 res   C2        2      0.000     36.000
      3 TN6d      1 res   C3        3      0.000     36.000
      4 TN1a      1 res   C4        4      0.000     36.000
      5 TN6d      1 res   C5        5      0.000     36.000

[ constraints ]
;  ai    aj   funct      b0(nm)
    1     2     1      0.23050
    2     3     1      0.28165
    4     5     1      0.19143
    3     4     1      0.29809
    2     4     1      0.17678

[ bonds ]
;  ai    aj   funct      b0(nm)          k(kJ/mol/nm^2)

[ angles ]
;  ai    aj    ak  funct     th0(deg)        k(kJ/mol/rad^2)
    1     2     3     1    157.01305           623.26
    1     2     4     1    123.13331           944.74
    2     3     4     1     35.36127         14774.53
    2     4     3     1     67.23366          3870.90
    2     4     5     1    160.24329          1185.49
    3     2     4     1     77.40507          3825.46
    3     4     5     1    130.96613          1167.21

[ dihedrals ]
;  ai    aj    ak    al  funct   phi0(deg)        k(kJ/mol)   mult
    1     2     3     4     1     -0.48513       26.729      1
    1     2     4     3     1     -0.92575       17.112      1
    1     2     4     5     1   -179.94595       27.765      1
    2     3     4     5     1      0.26357       15.066      1
    3     2     4     5     1      3.70685       25.571      1
