1TPCN05509
48
    1res  C1    1   -0.974  -0.641  -0.178
    1res  C2    2   -0.954  -0.269  -0.099
    1res  C3    3   -0.901  -0.223   0.162
    1res  C4    4   -0.723  -0.138   0.316
    1res  C5    5   -0.954   0.144   0.401
    1res  C6    6   -0.510   0.003   0.464
    1res  C7    7   -0.490  -0.147   0.182
    1res  C8    8   -0.365  -0.073  -0.005
    1res  C9    9   -0.136  -0.077  -0.198
    1res  C10   10   -0.250   0.190  -0.122
    1res  C11   11   -0.192   0.142  -0.404
    1res  C12   12    0.045  -0.210   0.042
    1res  C13   13    0.196   0.105  -0.147
    1res  C14   14    0.323  -0.184  -0.025
    1res  C15   15    0.496   0.162   0.052
    1res  C16   16    0.669   0.011  -0.115
    1res  C17   17    0.799  -0.088   0.069
    1res  C18   18    0.976  -0.265  -0.038
    1res  C19   19    0.803  -0.414  -0.216
    1res  C20   20    1.117  -0.291  -0.300
    1res  C21   21    1.222  -0.189  -0.135
    1res  C22   22    1.405  -0.373   0.016
    1res  C23   23    1.566  -0.303   0.229
    1res  C24   24    1.512  -0.070   0.111
    1res  C25   25    1.535  -0.169  -0.097
    1res  C26   26    1.105  -0.035  -0.055
    1res  C27   27    1.195   0.220  -0.065
    1res  C28   28    1.042   0.357  -0.195
    1res  C29   29    1.317   0.442   0.008
    1res  C30   30    1.387   0.305   0.187
    1res  C31   31    1.222   0.149   0.234
    1res  C32   32    0.749   0.142   0.221
    1res  C33   33    0.726  -0.102   0.339
    1res  C34   34    0.378  -0.110   0.235
    1res  C35   35   -0.072   0.007   0.187
    1res  C36   36   -0.669  -0.051   0.075
    1res  C37   37   -0.675   0.081  -0.075
    1res  C38   38   -0.940   0.150  -0.233
    1res  C39   39   -0.936   0.298  -0.044
    1res  C40   40   -1.171   0.455  -0.111
    1res  C41   41   -1.273   0.703  -0.170
    1res  C42   42   -1.176   0.724   0.051
    1res  C43   43   -0.979   0.635   0.012
    1res  C44   44   -0.754   0.406   0.010
    1res  C45   45   -0.566   0.303  -0.008
    1res  C46   46   -1.128  -0.280   0.223
    1res  C47   47   -1.193  -0.166  -0.021
    1res  C48   48   -1.385  -0.490  -0.093
  10.00000  10.00000  10.00000
