1TPCN04114
33
    1res  C1    1   -1.001   0.234  -0.091
    1res  C2    2   -0.788   0.156   0.138
    1res  C3    3   -0.709  -0.044   0.148
    1res  C4    4   -0.626  -0.090  -0.042
    1res  C5    5   -0.687   0.011  -0.302
    1res  C6    6   -0.404   0.036  -0.231
    1res  C7    7   -0.129   0.112  -0.079
    1res  C8    8    0.064   0.018  -0.237
    1res  C9    9    0.130  -0.241   0.013
    1res  C10   10    0.228  -0.019   0.099
    1res  C11   11    0.313   0.216  -0.006
    1res  C12   12    0.481  -0.079  -0.071
    1res  C13   13    0.654   0.039   0.128
    1res  C14   14    0.693   0.303   0.095
    1res  C15   15    0.792   0.292   0.342
    1res  C16   16    0.706   0.058   0.414
    1res  C17   17    0.795  -0.160   0.144
    1res  C18   18    0.893  -0.087  -0.103
    1res  C19   19    0.893   0.083  -0.328
    1res  C20   20    1.177   0.027  -0.165
    1res  C21   21    1.194  -0.109   0.038
    1res  C22   22    1.029  -0.302   0.010
    1res  C23   23    0.496  -0.175   0.223
    1res  C24   24   -0.189  -0.225  -0.168
    1res  C25   25   -0.541   0.272  -0.158
    1res  C26   26   -0.698   0.263  -0.356
    1res  C27   27   -0.786  -0.279  -0.075
    1res  C28   28   -0.991  -0.316  -0.050
    1res  C29   29   -0.678  -0.404   0.117
    1res  C30   30   -0.742  -0.221   0.282
    1res  C31   31   -0.912   0.219   0.333
    1res  C32   32   -1.126   0.197   0.219
    1res  C33   33   -1.131   0.053   0.031
  10.00000  10.00000  10.00000
