1TPCN02101
23
    1res  C1    1    0.727   0.138  -0.278
    1res  C2    2    0.796   0.255  -0.056
    1res  C3    3    0.534   0.208  -0.060
    1res  C4    4    0.562  -0.136  -0.193
    1res  C5    5    0.329  -0.023  -0.224
    1res  C6    6    0.144  -0.172  -0.198
    1res  C7    7    0.065  -0.085   0.022
    1res  C8    8   -0.026   0.115  -0.093
    1res  C9    9   -0.113   0.011   0.097
    1res  C10   10    0.163  -0.175   0.188
    1res  C11   11    0.297  -0.402   0.190
    1res  C12   12    0.092  -0.425   0.340
    1res  C13   13   -0.035  -0.139   0.437
    1res  C14   14   -0.225  -0.149   0.242
    1res  C15   15   -0.312   0.106   0.237
    1res  C16   16   -0.190   0.314   0.087
    1res  C17   17   -0.357   0.279  -0.067
    1res  C18   18   -0.551   0.212  -0.297
    1res  C19   19   -0.681  -0.111  -0.115
    1res  C20   20   -0.522  -0.245   0.025
    1res  C21   21   -0.390  -0.062  -0.103
    1res  C22   22    0.445   0.139   0.169
    1res  C23   23    0.186   0.144   0.154
  10.00000  10.00000  10.00000
