[ moleculetype ]
; name        nrexcl
res           1

[ atoms ]
;    nr  type resnr resid  atom  cgnr     charge       mass
      1 TC3       1 res   C1        1      0.000     36.000
      2 TN6d      1 res   C2        2      0.000     36.000
      3 TC5       1 res   C3        3      0.000     36.000
      4 SC3       1 res   C4        4      0.000     54.000
      5 TN3r      1 res   C5        5      0.000     36.000
      6 TC5       1 res   C6        6      0.000     36.000
      7 SC3       1 res   C7        7      0.000     54.000
      8 SN4a      1 res   C8        8      0.000     54.000
      9 SN5a      1 res   C9        9      0.000     54.000
     10 SC3       1 res   C10      10      0.000     54.000
     11 TN3r      1 res   C11      11      0.000     36.000
     12 SN6       1 res   C12      12      0.000     54.000
     13 TN6a      1 res   C13      13      0.000     36.000

[ bonds ]
;  ai    aj   funct      b0(nm)        k
    1     2     1      0.26173    20000
    2     3     1      0.26084    20000
    2     6     1      0.28858    20000
    3     4     1      0.25634    20000
    3     6     1      0.30056    20000
    3     7     1      0.26831    20000
    4     5     1      0.33828    20000
    4     6     1      0.33187    20000
    6     7     1      0.23009    20000
    6    12     1      0.30620    20000
    7     8     1      0.35298    20000
    7     9     1      0.22442    20000
    7    10     1      0.39121    20000
    7    12     1      0.31631    20000
   10    11     1      0.31583    20000
   10    12     1      0.29880    20000
   10    13     1      0.25489    20000
   12    13     1      0.24488    20000
