Generated with MDTraj, t= 0.0
 73
    1UNL     C1    1  -0.074  -0.373  -0.120
    1UNL     O1    2  -0.057  -0.244  -0.070
    1UNL     C2    3   0.046  -0.182  -0.138
    1UNL     O2    4   0.106  -0.234  -0.231
    1UNL     C3    5   0.081  -0.048  -0.094
    1UNL     C4    6   0.170   0.026  -0.164
    1UNL     O3    7   0.216   0.148  -0.126
    1UNL     C5    8   0.217   0.161   0.016
    1UNL     O4    9   0.312   0.076   0.079
    1UNL     C6   10   0.447   0.115   0.054
    1UNL     O5   11   0.543   0.044   0.133
    1UNL     C7   12   0.545  -0.098   0.107
    1UNL     C8   13   0.414  -0.165   0.148
    1UNL     O6   14   0.417  -0.304   0.135
    1UNL     C9   15   0.584  -0.124  -0.042
    1UNL     O7   16   0.584  -0.262  -0.077
    1UNL    C10   17   0.492  -0.046  -0.138
    1UNL     O8   18   0.541  -0.056  -0.270
    1UNL    C11   19   0.485   0.102  -0.096
    1UNL     O9   20   0.608   0.166  -0.123
    1UNL    C12   21   0.078   0.140   0.081
    1UNL    C13   22  -0.001   0.272   0.078
    1UNL    O10   23   0.086   0.380   0.110
    1UNL    C14   24  -0.122   0.273   0.173
    1UNL     N1   25  -0.246   0.211   0.117
    1UNL    C15   26  -0.368   0.249   0.194
    1UNL    C16   27  -0.497   0.213   0.119
    1UNL    C17   28  -0.489   0.075   0.064
    1UNL    C18   29  -0.371   0.007   0.053
    1UNL     N2   30  -0.394  -0.118  -0.001
    1UNL    C19   31  -0.530  -0.130  -0.026
    1UNL    C20   32  -0.605  -0.234  -0.083
    1UNL    C21   33  -0.740  -0.216  -0.097
    1UNL    C22   34  -0.802  -0.097  -0.057
    1UNL    C23   35  -0.731   0.006  -0.002
    1UNL    C24   36  -0.592  -0.010   0.014
    1UNL    C25   37  -0.237   0.065   0.088
    1UNL    C26   38  -0.138   0.039  -0.026
    1UNL    C27   39   0.006   0.014   0.021
    1UNL     H1   40   0.020  -0.428  -0.108
    1UNL     H2   41  -0.098  -0.367  -0.227
    1UNL     H3   42  -0.154  -0.422  -0.066
    1UNL     H4   43   0.209  -0.013  -0.258
    1UNL     H5   44   0.248   0.265   0.037
    1UNL     H6   45   0.456   0.220   0.085
    1UNL     H7   46   0.625  -0.138   0.171
    1UNL     H8   47   0.331  -0.126   0.087
    1UNL     H9   48   0.390  -0.141   0.252
    1UNL    H10   49   0.470  -0.325   0.055
    1UNL    H11   50   0.687  -0.088  -0.058
    1UNL    H12   51   0.589  -0.269  -0.175
    1UNL    H13   52   0.393  -0.093  -0.137
    1UNL    H14   53   0.609   0.014  -0.282
    1UNL    H15   54   0.411   0.154  -0.158
    1UNL    H16   55   0.671   0.145  -0.050
    1UNL    H17   56   0.098   0.119   0.187
    1UNL    H18   57  -0.035   0.290  -0.025
    1UNL    H19   58   0.039   0.466   0.103
    1UNL    H20   59  -0.096   0.224   0.267
    1UNL    H21   60  -0.145   0.377   0.198
    1UNL    H22   61  -0.364   0.356   0.215
    1UNL    H23   62  -0.364   0.198   0.290
    1UNL    H24   63  -0.514   0.284   0.037
    1UNL    H25   64  -0.584   0.222   0.185
    1UNL    H26   65  -0.321  -0.185  -0.024
    1UNL    H27   66  -0.556  -0.324  -0.114
    1UNL    H28   67  -0.799  -0.295  -0.141
    1UNL    H29   68  -0.909  -0.086  -0.070
    1UNL    H30   69  -0.778   0.097   0.029
    1UNL    H31   70  -0.202   0.015   0.179
    1UNL    H32   71  -0.141   0.122  -0.097
    1UNL    H33   72  -0.171  -0.048  -0.083
    1UNL    H34   73   0.002  -0.063   0.099
   0.00000   0.00000   0.00000   0.00000   0.00000   0.00000   0.00000   0.00000   0.00000
Generated with MDTraj, t= 1.0
 73
    1UNL     C1    1  -0.092  -0.367  -0.163
    1UNL     O1    2  -0.070  -0.237  -0.113
    1UNL     C2    3   0.047  -0.188  -0.157
    1UNL     O2    4   0.123  -0.240  -0.237
    1UNL     C3    5   0.084  -0.046  -0.115
    1UNL     C4    6   0.180   0.025  -0.177
    1UNL     O3    7   0.223   0.145  -0.146
    1UNL     C5    8   0.213   0.156  -0.002
    1UNL     O4    9   0.302   0.072   0.062
    1UNL     C6   10   0.434   0.121   0.054
    1UNL     O5   11   0.526   0.046   0.144
    1UNL     C7   12   0.534  -0.097   0.121
    1UNL     C8   13   0.399  -0.165   0.159
    1UNL     O6   14   0.388  -0.303   0.141
    1UNL     C9   15   0.589  -0.117  -0.031
    1UNL     O7   16   0.594  -0.257  -0.068
    1UNL    C10   17   0.494  -0.035  -0.130
    1UNL     O8   18   0.535  -0.053  -0.266
    1UNL    C11   19   0.487   0.113  -0.090
    1UNL     O9   20   0.607   0.185  -0.099
    1UNL    C12   21   0.080   0.135   0.067
    1UNL    C13   22   0.005   0.263   0.096
    1UNL    O10   23   0.092   0.364   0.151
    1UNL    C14   24  -0.115   0.252   0.191
    1UNL     N1   25  -0.234   0.203   0.107
    1UNL    C15   26  -0.359   0.264   0.162
    1UNL    C16   27  -0.474   0.231   0.075
    1UNL    C17   28  -0.481   0.077   0.064
    1UNL    C18   29  -0.366   0.004   0.064
    1UNL     N2   30  -0.398  -0.124   0.027
    1UNL    C19   31  -0.529  -0.129  -0.008
    1UNL    C20   32  -0.606  -0.239  -0.039
    1UNL    C21   33  -0.739  -0.228  -0.059
    1UNL    C22   34  -0.798  -0.100  -0.044
    1UNL    C23   35  -0.724   0.011   0.002
    1UNL    C24   36  -0.586  -0.008   0.030
    1UNL    C25   37  -0.225   0.062   0.078
    1UNL    C26   38  -0.139   0.036  -0.045
    1UNL    C27   39   0.003   0.013  -0.003
    1UNL     H1   40  -0.115  -0.428  -0.078
    1UNL     H2   41   0.000  -0.410  -0.196
    1UNL     H3   42  -0.182  -0.376  -0.217
    1UNL     H4   43   0.213  -0.010  -0.275
    1UNL     H5   44   0.249   0.261   0.021
    1UNL     H6   45   0.435   0.216   0.103
    1UNL     H7   46   0.608  -0.128   0.198
    1UNL     H8   47   0.311  -0.135   0.101
    1UNL     H9   48   0.371  -0.141   0.262
    1UNL    H10   49   0.442  -0.329   0.061
    1UNL    H11   50   0.695  -0.083  -0.035
    1UNL    H12   51   0.524  -0.291  -0.136
    1UNL    H13   52   0.392  -0.079  -0.137
    1UNL    H14   53   0.627  -0.037  -0.287
    1UNL    H15   54   0.418   0.175  -0.147
    1UNL    H16   55   0.585   0.280  -0.090
    1UNL    H17   56   0.116   0.099   0.163
    1UNL    H18   57  -0.024   0.316   0.002
    1UNL    H19   58   0.066   0.456   0.113
    1UNL    H20   59  -0.079   0.189   0.272
    1UNL    H21   60  -0.130   0.352   0.232
    1UNL    H22   61  -0.337   0.371   0.168
    1UNL    H23   62  -0.364   0.221   0.262
    1UNL    H24   63  -0.446   0.266  -0.023
    1UNL    H25   64  -0.565   0.284   0.102
    1UNL    H26   65  -0.349  -0.212   0.037
    1UNL    H27   66  -0.550  -0.336  -0.036
    1UNL    H28   67  -0.804  -0.321  -0.048
    1UNL    H29   68  -0.900  -0.094  -0.070
    1UNL    H30   69  -0.767   0.100   0.021
    1UNL    H31   70  -0.187   0.006   0.164
    1UNL    H32   71  -0.135   0.108  -0.130
    1UNL    H33   72  -0.194  -0.052  -0.082
    1UNL    H34   73   0.004  -0.063   0.079
   0.00000   0.00000   0.00000   0.00000   0.00000   0.00000   0.00000   0.00000   0.00000
Generated with MDTraj, t= 2.0
 73
    1UNL     C1    1  -0.087  -0.367  -0.198
    1UNL     O1    2  -0.075  -0.240  -0.128
    1UNL     C2    3   0.039  -0.172  -0.175
    1UNL     O2    4   0.116  -0.212  -0.261
    1UNL     C3    5   0.078  -0.045  -0.118
    1UNL     C4    6   0.170   0.034  -0.179
    1UNL     O3    7   0.230   0.146  -0.124
    1UNL     C5    8   0.215   0.154   0.017
    1UNL     O4    9   0.317   0.083   0.080
    1UNL     C6   10   0.450   0.128   0.056
    1UNL     O5   11   0.538   0.048   0.145
    1UNL     C7   12   0.535  -0.093   0.113
    1UNL     C8   13   0.407  -0.160   0.146
    1UNL     O6   14   0.408  -0.302   0.142
    1UNL     C9   15   0.590  -0.124  -0.029
    1UNL     O7   16   0.575  -0.261  -0.058
    1UNL    C10   17   0.512  -0.037  -0.132
    1UNL     O8   18   0.571  -0.047  -0.256
    1UNL    C11   19   0.510   0.112  -0.094
    1UNL     O9   20   0.644   0.160  -0.097
    1UNL    C12   21   0.072   0.118   0.079
    1UNL    C13   22   0.005   0.254   0.092
    1UNL    O10   23   0.094   0.355   0.137
    1UNL    C14   24  -0.125   0.269   0.174
    1UNL     N1   25  -0.247   0.215   0.104
    1UNL    C15   26  -0.380   0.270   0.156
    1UNL    C16   27  -0.494   0.226   0.062
    1UNL    C17   28  -0.495   0.076   0.048
    1UNL    C18   29  -0.374   0.006   0.060
    1UNL     N2   30  -0.398  -0.127   0.042
    1UNL    C19   31  -0.535  -0.140   0.018
    1UNL    C20   32  -0.619  -0.253   0.013
    1UNL    C21   33  -0.756  -0.238  -0.010
    1UNL    C22   34  -0.814  -0.105  -0.029
    1UNL    C23   35  -0.731   0.005  -0.021
    1UNL    C24   36  -0.593  -0.013   0.004
    1UNL    C25   37  -0.238   0.073   0.070
    1UNL    C26   38  -0.141   0.047  -0.050
    1UNL    C27   39  -0.006   0.006  -0.001
    1UNL     H1   40  -0.185  -0.378  -0.239
    1UNL     H2   41  -0.071  -0.442  -0.124
    1UNL     H3   42  -0.034  -0.369  -0.289
    1UNL     H4   43   0.214  -0.007  -0.271
    1UNL     H5   44   0.230   0.266   0.034
    1UNL     H6   45   0.470   0.227   0.088
    1UNL     H7   46   0.605  -0.130   0.193
    1UNL     H8   47   0.327  -0.121   0.081
    1UNL     H9   48   0.360  -0.151   0.246
    1UNL    H10   49   0.474  -0.340   0.082
    1UNL    H11   50   0.700  -0.099  -0.026
    1UNL    H12   51   0.529  -0.273  -0.145
    1UNL    H13   52   0.405  -0.064  -0.145
    1UNL    H14   53   0.654   0.012  -0.269
    1UNL    H15   54   0.461   0.183  -0.158
    1UNL    H16   55   0.712   0.096  -0.064
    1UNL    H17   56   0.084   0.086   0.179
    1UNL    H18   57  -0.025   0.291  -0.011
    1UNL    H19   58   0.141   0.304   0.216
    1UNL    H20   59  -0.114   0.230   0.275
    1UNL    H21   60  -0.144   0.377   0.182
    1UNL    H22   61  -0.357   0.375   0.159
    1UNL    H23   62  -0.387   0.231   0.260
    1UNL    H24   63  -0.489   0.279  -0.031
    1UNL    H25   64  -0.585   0.254   0.114
    1UNL    H26   65  -0.329  -0.190   0.004
    1UNL    H27   66  -0.577  -0.342   0.041
    1UNL    H28   67  -0.801  -0.329  -0.026
    1UNL    H29   68  -0.928  -0.104  -0.023
    1UNL    H30   69  -0.786   0.107  -0.035
    1UNL    H31   70  -0.198   0.032   0.163
    1UNL    H32   71  -0.160   0.143  -0.101
    1UNL    H33   72  -0.177  -0.027  -0.122
    1UNL    H34   73  -0.010  -0.080   0.072
   0.00000   0.00000   0.00000   0.00000   0.00000   0.00000   0.00000   0.00000   0.00000
Generated with MDTraj, t= 3.0
 73
    1UNL     C1    1  -0.096  -0.336  -0.206
    1UNL     O1    2  -0.053  -0.230  -0.121
    1UNL     C2    3   0.044  -0.156  -0.188
    1UNL     O2    4   0.091  -0.182  -0.298
    1UNL     C3    5   0.089  -0.036  -0.122
    1UNL     C4    6   0.179   0.048  -0.185
    1UNL     O3    7   0.238   0.159  -0.124
    1UNL     C5    8   0.227   0.161   0.016
    1UNL     O4    9   0.313   0.068   0.083
    1UNL     C6   10   0.447   0.102   0.071
    1UNL     O5   11   0.539   0.035   0.157
    1UNL     C7   12   0.541  -0.108   0.126
    1UNL     C8   13   0.414  -0.186   0.160
    1UNL     O6   14   0.420  -0.324   0.160
    1UNL     C9   15   0.590  -0.130  -0.023
    1UNL     O7   16   0.589  -0.274  -0.064
    1UNL    C10   17   0.511  -0.040  -0.123
    1UNL     O8   18   0.576  -0.036  -0.249
    1UNL    C11   19   0.497   0.100  -0.076
    1UNL     O9   20   0.614   0.168  -0.108
    1UNL    C12   21   0.081   0.134   0.076
    1UNL    C13   22   0.002   0.270   0.075
    1UNL    O10   23   0.089   0.371   0.129
    1UNL    C14   24  -0.129   0.260   0.165
    1UNL     N1   25  -0.238   0.212   0.084
    1UNL    C15   26  -0.374   0.273   0.129
    1UNL    C16   27  -0.491   0.227   0.036
    1UNL    C17   28  -0.492   0.073   0.021
    1UNL    C18   29  -0.377   0.002   0.040
    1UNL     N2   30  -0.406  -0.129   0.041
    1UNL    C19   31  -0.548  -0.141   0.032
    1UNL    C20   32  -0.625  -0.261   0.017
    1UNL    C21   33  -0.763  -0.250   0.010
    1UNL    C22   34  -0.821  -0.119   0.009
    1UNL    C23   35  -0.742  -0.001   0.012
    1UNL    C24   36  -0.602  -0.012   0.024
    1UNL    C25   37  -0.237   0.060   0.066
    1UNL    C26   38  -0.131   0.040  -0.043
    1UNL    C27   39   0.014   0.017   0.005
    1UNL     H1   40  -0.067  -0.311  -0.311
    1UNL     H2   41  -0.206  -0.341  -0.194
    1UNL     H3   42  -0.050  -0.428  -0.186
    1UNL     H4   43   0.209   0.025  -0.288
    1UNL     H5   44   0.255   0.270   0.041
    1UNL     H6   45   0.455   0.204   0.101
    1UNL     H7   46   0.614  -0.140   0.208
    1UNL     H8   47   0.327  -0.156   0.099
    1UNL     H9   48   0.385  -0.146   0.259
    1UNL    H10   49   0.471  -0.349   0.078
    1UNL    H11   50   0.702  -0.110  -0.025
    1UNL    H12   51   0.559  -0.277  -0.152
    1UNL    H13   52   0.410  -0.088  -0.136
    1UNL    H14   53   0.587   0.057  -0.267
    1UNL    H15   54   0.421   0.144  -0.136
    1UNL    H16   55   0.669   0.183  -0.027
    1UNL    H17   56   0.093   0.104   0.177
    1UNL    H18   57  -0.014   0.303  -0.033
    1UNL    H19   58   0.041   0.451   0.163
    1UNL    H20   59  -0.128   0.204   0.259
    1UNL    H21   60  -0.156   0.362   0.191
    1UNL    H22   61  -0.359   0.378   0.136
    1UNL    H23   62  -0.380   0.234   0.233
    1UNL    H24   63  -0.491   0.276  -0.059
    1UNL    H25   64  -0.583   0.251   0.088
    1UNL    H26   65  -0.339  -0.203   0.034
    1UNL    H27   66  -0.562  -0.349  -0.013
    1UNL    H28   67  -0.828  -0.342  -0.014
    1UNL    H29   68  -0.919  -0.114  -0.016
    1UNL    H30   69  -0.793   0.095   0.009
    1UNL    H31   70  -0.200   0.002   0.152
    1UNL    H32   71  -0.121   0.124  -0.113
    1UNL    H33   72  -0.175  -0.036  -0.108
    1UNL    H34   73   0.033  -0.068   0.079
   0.00000   0.00000   0.00000   0.00000   0.00000   0.00000   0.00000   0.00000   0.00000
Generated with MDTraj, t= 4.0
 73
    1UNL     C1    1  -0.076  -0.330  -0.214
    1UNL     O1    2  -0.044  -0.222  -0.137
    1UNL     C2    3   0.040  -0.138  -0.207
    1UNL     O2    4   0.075  -0.161  -0.322
    1UNL     C3    5   0.077  -0.018  -0.132
    1UNL     C4    6   0.178   0.066  -0.174
    1UNL     O3    7   0.229   0.170  -0.111
    1UNL     C5    8   0.215   0.155   0.036
    1UNL     O4    9   0.295   0.049   0.084
    1UNL     C6   10   0.427   0.085   0.077
    1UNL     O5   11   0.528   0.026   0.163
    1UNL     C7   12   0.549  -0.112   0.127
    1UNL     C8   13   0.417  -0.190   0.155
    1UNL     O6   14   0.438  -0.324   0.145
    1UNL     C9   15   0.605  -0.128  -0.019
    1UNL     O7   16   0.617  -0.268  -0.064
    1UNL    C10   17   0.503  -0.056  -0.111
    1UNL     O8   18   0.537  -0.071  -0.247
    1UNL    C11   19   0.490   0.092  -0.068
    1UNL     O9   20   0.621   0.150  -0.062
    1UNL    C12   21   0.072   0.140   0.078
    1UNL    C13   22  -0.007   0.271   0.054
    1UNL    O10   23   0.073   0.383   0.092
    1UNL    C14   24  -0.134   0.284   0.139
    1UNL     N1   25  -0.249   0.219   0.089
    1UNL    C15   26  -0.385   0.275   0.126
    1UNL    C16   27  -0.495   0.224   0.040
    1UNL    C17   28  -0.479   0.075   0.022
    1UNL    C18   29  -0.364   0.002   0.029
    1UNL     N2   30  -0.392  -0.132   0.038
    1UNL    C19   31  -0.531  -0.148   0.026
    1UNL    C20   32  -0.612  -0.262   0.016
    1UNL    C21   33  -0.749  -0.244   0.030
    1UNL    C22   34  -0.807  -0.114   0.036
    1UNL    C23   35  -0.723  -0.006   0.025
    1UNL    C24   36  -0.584  -0.019   0.026
    1UNL    C25   37  -0.236   0.064   0.069
    1UNL    C26   38  -0.135   0.032  -0.037
    1UNL    C27   39   0.008   0.010   0.000
    1UNL     H1   40   0.004  -0.413  -0.208
    1UNL     H2   41  -0.082  -0.290  -0.324
    1UNL     H3   42  -0.176  -0.357  -0.188
    1UNL     H4   43   0.211   0.054  -0.276
    1UNL     H5   44   0.252   0.252   0.081
    1UNL     H6   45   0.422   0.186   0.119
    1UNL     H7   46   0.622  -0.164   0.199
    1UNL     H8   47   0.350  -0.145   0.080
    1UNL     H9   48   0.371  -0.166   0.253
    1UNL    H10   49   0.509  -0.343   0.079
    1UNL    H11   50   0.705  -0.084  -0.043
    1UNL    H12   51   0.574  -0.261  -0.156
    1UNL    H13   52   0.407  -0.112  -0.115
    1UNL    H14   53   0.611  -0.012  -0.251
    1UNL    H15   54   0.425   0.131  -0.144
    1UNL    H16   55   0.614   0.206   0.018
    1UNL    H17   56   0.067   0.118   0.181
    1UNL    H18   57  -0.019   0.269  -0.059
    1UNL    H19   58   0.036   0.465   0.064
    1UNL    H20   59  -0.114   0.240   0.237
    1UNL    H21   60  -0.160   0.386   0.165
    1UNL    H22   61  -0.373   0.377   0.096
    1UNL    H23   62  -0.405   0.262   0.237
    1UNL    H24   63  -0.481   0.269  -0.058
    1UNL    H25   64  -0.591   0.247   0.085
    1UNL    H26   65  -0.329  -0.196   0.082
    1UNL    H27   66  -0.564  -0.355  -0.006
    1UNL    H28   67  -0.803  -0.333   0.036
    1UNL    H29   68  -0.921  -0.102   0.045
    1UNL    H30   69  -0.764   0.085   0.032
    1UNL    H31   70  -0.208   0.034   0.171
    1UNL    H32   71  -0.153   0.113  -0.110
    1UNL    H33   72  -0.164  -0.049  -0.104
    1UNL    H34   73   0.002  -0.089   0.061
   0.00000   0.00000   0.00000   0.00000   0.00000   0.00000   0.00000   0.00000   0.00000
Generated with MDTraj, t= 5.0
 73
    1UNL     C1    1  -0.050  -0.332  -0.246
    1UNL     O1    2  -0.039  -0.221  -0.162
    1UNL     C2    3   0.044  -0.132  -0.219
    1UNL     O2    4   0.091  -0.148  -0.330
    1UNL     C3    5   0.085  -0.016  -0.138
    1UNL     C4    6   0.188   0.059  -0.180
    1UNL     O3    7   0.243   0.161  -0.109
    1UNL     C5    8   0.220   0.159   0.033
    1UNL     O4    9   0.309   0.072   0.106
    1UNL     C6   10   0.444   0.094   0.093
    1UNL     O5   11   0.513   0.014   0.187
    1UNL     C7   12   0.534  -0.129   0.141
    1UNL     C8   13   0.407  -0.214   0.163
    1UNL     O6   14   0.426  -0.347   0.119
    1UNL     C9   15   0.592  -0.130  -0.007
    1UNL     O7   16   0.611  -0.264  -0.064
    1UNL    C10   17   0.502  -0.058  -0.102
    1UNL     O8   18   0.545  -0.083  -0.230
    1UNL    C11   19   0.492   0.089  -0.063
    1UNL     O9   20   0.624   0.148  -0.087
    1UNL    C12   21   0.071   0.146   0.064
    1UNL    C13   22   0.000   0.284   0.035
    1UNL    O10   23   0.090   0.389   0.067
    1UNL    C14   24  -0.129   0.301   0.112
    1UNL     N1   25  -0.255   0.234   0.081
    1UNL    C15   26  -0.383   0.289   0.138
    1UNL    C16   27  -0.509   0.230   0.073
    1UNL    C17   28  -0.502   0.080   0.048
    1UNL    C18   29  -0.378   0.018   0.052
    1UNL     N2   30  -0.400  -0.117   0.051
    1UNL    C19   31  -0.537  -0.151   0.052
    1UNL    C20   32  -0.607  -0.272   0.047
    1UNL    C21   33  -0.741  -0.272   0.027
    1UNL    C22   34  -0.804  -0.148   0.019
    1UNL    C23   35  -0.735  -0.029   0.023
    1UNL    C24   36  -0.601  -0.029   0.040
    1UNL    C25   37  -0.248   0.081   0.071
    1UNL    C26   38  -0.149   0.050  -0.048
    1UNL    C27   39   0.002   0.024  -0.015
    1UNL     H1   40  -0.087  -0.426  -0.191
    1UNL     H2   41   0.061  -0.361  -0.278
    1UNL     H3   42  -0.112  -0.293  -0.328
    1UNL     H4   43   0.245   0.028  -0.266
    1UNL     H5   44   0.254   0.259   0.064
    1UNL     H6   45   0.463   0.200   0.124
    1UNL     H7   46   0.616  -0.169   0.212
    1UNL     H8   47   0.325  -0.166   0.106
    1UNL     H9   48   0.382  -0.199   0.270
    1UNL    H10   49   0.491  -0.355   0.046
    1UNL    H11   50   0.691  -0.083  -0.006
    1UNL    H12   51   0.579  -0.262  -0.160
    1UNL    H13   52   0.398  -0.094  -0.085
    1UNL    H14   53   0.626  -0.018  -0.240
    1UNL    H15   54   0.430   0.150  -0.126
    1UNL    H16   55   0.638   0.227  -0.032
    1UNL    H17   56   0.065   0.124   0.167
    1UNL    H18   57  -0.028   0.290  -0.072
    1UNL    H19   58   0.067   0.463   0.012
    1UNL    H20   59  -0.116   0.277   0.219
    1UNL    H21   60  -0.140   0.408   0.132
    1UNL    H22   61  -0.385   0.394   0.124
    1UNL    H23   62  -0.386   0.251   0.245
    1UNL    H24   63  -0.515   0.271  -0.027
    1UNL    H25   64  -0.595   0.245   0.137
    1UNL    H26   65  -0.326  -0.184   0.035
    1UNL    H27   66  -0.557  -0.360   0.073
    1UNL    H28   67  -0.792  -0.368   0.007
    1UNL    H29   68  -0.906  -0.146   0.038
    1UNL    H30   69  -0.792   0.072   0.006
    1UNL    H31   70  -0.203   0.040   0.163
    1UNL    H32   71  -0.133   0.117  -0.134
    1UNL    H33   72  -0.195  -0.033  -0.103
    1UNL    H34   73  -0.002  -0.071   0.052
   0.00000   0.00000   0.00000   0.00000   0.00000   0.00000   0.00000   0.00000   0.00000
Generated with MDTraj, t= 6.0
 73
    1UNL     C1    1  -0.063  -0.323  -0.256
    1UNL     O1    2  -0.044  -0.209  -0.175
    1UNL     C2    3   0.052  -0.126  -0.221
    1UNL     O2    4   0.112  -0.150  -0.323
    1UNL     C3    5   0.082  -0.010  -0.142
    1UNL     C4    6   0.175   0.076  -0.184
    1UNL     O3    7   0.228   0.187  -0.109
    1UNL     C5    8   0.209   0.164   0.028
    1UNL     O4    9   0.280   0.047   0.078
    1UNL     C6   10   0.423   0.075   0.081
    1UNL     O5   11   0.502   0.007   0.178
    1UNL     C7   12   0.508  -0.132   0.135
    1UNL     C8   13   0.369  -0.193   0.158
    1UNL     O6   14   0.372  -0.337   0.142
    1UNL     C9   15   0.574  -0.140  -0.005
    1UNL     O7   16   0.599  -0.280  -0.041
    1UNL    C10   17   0.507  -0.056  -0.119
    1UNL     O8   18   0.591  -0.044  -0.239
    1UNL    C11   19   0.488   0.081  -0.057
    1UNL     O9   20   0.618   0.138  -0.056
    1UNL    C12   21   0.052   0.147   0.061
    1UNL    C13   22  -0.008   0.284   0.024
    1UNL    O10   23   0.081   0.390   0.053
    1UNL    C14   24  -0.132   0.302   0.100
    1UNL     N1   25  -0.249   0.231   0.055
    1UNL    C15   26  -0.369   0.285   0.121
    1UNL    C16   27  -0.496   0.217   0.071
    1UNL    C17   28  -0.475   0.066   0.073
    1UNL    C18   29  -0.353   0.005   0.084
    1UNL     N2   30  -0.369  -0.134   0.064
    1UNL    C19   31  -0.509  -0.154   0.047
    1UNL    C20   32  -0.587  -0.272   0.038
    1UNL    C21   33  -0.720  -0.261   0.018
    1UNL    C22   34  -0.784  -0.139   0.030
    1UNL    C23   35  -0.723  -0.021   0.059
    1UNL    C24   36  -0.579  -0.033   0.068
    1UNL    C25   37  -0.231   0.081   0.071
    1UNL    C26   38  -0.147   0.032  -0.047
    1UNL    C27   39   0.002   0.018  -0.011
    1UNL     H1   40  -0.156  -0.316  -0.315
    1UNL     H2   41  -0.082  -0.409  -0.177
    1UNL     H3   42   0.026  -0.322  -0.317
    1UNL     H4   43   0.216   0.067  -0.284
    1UNL     H5   44   0.257   0.246   0.076
    1UNL     H6   45   0.424   0.177   0.133
    1UNL     H7   46   0.577  -0.190   0.211
    1UNL     H8   47   0.292  -0.147   0.092
    1UNL     H9   48   0.335  -0.180   0.263
    1UNL    H10   49   0.432  -0.367   0.068
    1UNL    H11   50   0.677  -0.108   0.007
    1UNL    H12   51   0.612  -0.288  -0.136
    1UNL    H13   52   0.409  -0.092  -0.157
    1UNL    H14   53   0.661   0.022  -0.254
    1UNL    H15   54   0.433   0.149  -0.118
    1UNL    H16   55   0.638   0.200   0.017
    1UNL    H17   56   0.053   0.140   0.165
    1UNL    H18   57  -0.015   0.291  -0.084
    1UNL    H19   58   0.068   0.473  -0.002
    1UNL    H20   59  -0.106   0.315   0.208
    1UNL    H21   60  -0.155   0.408   0.095
    1UNL    H22   61  -0.377   0.386   0.087
    1UNL    H23   62  -0.359   0.276   0.235
    1UNL    H24   63  -0.515   0.240  -0.033
    1UNL    H25   64  -0.578   0.232   0.141
    1UNL    H26   65  -0.302  -0.201   0.028
    1UNL    H27   66  -0.528  -0.368   0.026
    1UNL    H28   67  -0.784  -0.348   0.003
    1UNL    H29   68  -0.890  -0.137  -0.000
    1UNL    H30   69  -0.771   0.078   0.069
    1UNL    H31   70  -0.168   0.080   0.163
    1UNL    H32   71  -0.167   0.105  -0.127
    1UNL    H33   72  -0.166  -0.062  -0.100
    1UNL    H34   73   0.024  -0.071   0.061
   0.00000   0.00000   0.00000   0.00000   0.00000   0.00000   0.00000   0.00000   0.00000
Generated with MDTraj, t= 7.0
 73
    1UNL     C1    1  -0.080  -0.310  -0.261
    1UNL     O1    2  -0.056  -0.196  -0.175
    1UNL     C2    3   0.052  -0.122  -0.221
    1UNL     O2    4   0.121  -0.151  -0.317
    1UNL     C3    5   0.087  -0.003  -0.147
    1UNL     C4    6   0.190   0.067  -0.197
    1UNL     O3    7   0.246   0.177  -0.139
    1UNL     C5    8   0.223   0.177   0.000
    1UNL     O4    9   0.294   0.073   0.066
    1UNL     C6   10   0.439   0.086   0.091
    1UNL     O5   11   0.492  -0.008   0.195
    1UNL     C7   12   0.489  -0.143   0.136
    1UNL     C8   13   0.345  -0.189   0.128
    1UNL     O6   14   0.331  -0.330   0.112
    1UNL     C9   15   0.569  -0.155   0.007
    1UNL     O7   16   0.536  -0.289  -0.035
    1UNL    C10   17   0.521  -0.060  -0.103
    1UNL     O8   18   0.590  -0.065  -0.222
    1UNL    C11   19   0.516   0.087  -0.046
    1UNL     O9   20   0.642   0.158  -0.031
    1UNL    C12   21   0.075   0.164   0.040
    1UNL    C13   22  -0.004   0.298   0.015
    1UNL    O10   23   0.081   0.411   0.026
    1UNL    C14   24  -0.130   0.308   0.111
    1UNL     N1   25  -0.247   0.230   0.070
    1UNL    C15   26  -0.373   0.275   0.135
    1UNL    C16   27  -0.503   0.208   0.080
    1UNL    C17   28  -0.483   0.065   0.084
    1UNL    C18   29  -0.358   0.008   0.080
    1UNL     N2   30  -0.373  -0.127   0.062
    1UNL    C19   31  -0.506  -0.159   0.044
    1UNL    C20   32  -0.571  -0.282   0.041
    1UNL    C21   33  -0.704  -0.286   0.031
    1UNL    C22   34  -0.782  -0.170   0.044
    1UNL    C23   35  -0.721  -0.051   0.063
    1UNL    C24   36  -0.581  -0.042   0.062
    1UNL    C25   37  -0.224   0.080   0.074
    1UNL    C26   38  -0.138   0.047  -0.048
    1UNL    C27   39   0.016   0.040  -0.024
    1UNL     H1   40  -0.019  -0.311  -0.348
    1UNL     H2   41  -0.190  -0.314  -0.290
    1UNL     H3   42  -0.050  -0.389  -0.201
    1UNL     H4   43   0.225   0.043  -0.298
    1UNL     H5   44   0.263   0.268   0.035
    1UNL     H6   45   0.444   0.185   0.146
    1UNL     H7   46   0.543  -0.200   0.224
    1UNL     H8   47   0.300  -0.144   0.037
    1UNL     H9   48   0.280  -0.160   0.211
    1UNL    H10   49   0.411  -0.363   0.070
    1UNL    H11   50   0.676  -0.151   0.023
    1UNL    H12   51   0.576  -0.305  -0.123
    1UNL    H13   52   0.414  -0.086  -0.120
    1UNL    H14   53   0.669  -0.009  -0.211
    1UNL    H15   54   0.456   0.151  -0.110
    1UNL    H16   55   0.679   0.149   0.060
    1UNL    H17   56   0.059   0.166   0.143
    1UNL    H18   57  -0.054   0.305  -0.079
    1UNL    H19   58   0.027   0.500   0.030
    1UNL    H20   59  -0.109   0.298   0.221
    1UNL    H21   60  -0.155   0.410   0.130
    1UNL    H22   61  -0.377   0.381   0.122
    1UNL    H23   62  -0.359   0.258   0.247
    1UNL    H24   63  -0.523   0.236  -0.022
    1UNL    H25   64  -0.586   0.231   0.146
    1UNL    H26   65  -0.307  -0.189   0.108
    1UNL    H27   66  -0.520  -0.370   0.033
    1UNL    H28   67  -0.747  -0.381   0.010
    1UNL    H29   68  -0.890  -0.182   0.049
    1UNL    H30   69  -0.773   0.030   0.088
    1UNL    H31   70  -0.166   0.051   0.165
    1UNL    H32   71  -0.149   0.111  -0.138
    1UNL    H33   72  -0.188  -0.046  -0.079
    1UNL    H34   73   0.031  -0.051   0.048
   0.00000   0.00000   0.00000   0.00000   0.00000   0.00000   0.00000   0.00000   0.00000
Generated with MDTraj, t= 8.0
 73
    1UNL     C1    1  -0.095  -0.299  -0.246
    1UNL     O1    2  -0.064  -0.184  -0.170
    1UNL     C2    3   0.046  -0.122  -0.225
    1UNL     O2    4   0.111  -0.156  -0.324
    1UNL     C3    5   0.094  -0.007  -0.145
    1UNL     C4    6   0.205   0.061  -0.189
    1UNL     O3    7   0.258   0.167  -0.132
    1UNL     C5    8   0.220   0.181   0.009
    1UNL     O4    9   0.290   0.096   0.097
    1UNL     C6   10   0.430   0.097   0.102
    1UNL     O5   11   0.482   0.001   0.193
    1UNL     C7   12   0.466  -0.130   0.136
    1UNL     C8   13   0.313  -0.173   0.131
    1UNL     O6   14   0.290  -0.300   0.088
    1UNL     C9   15   0.545  -0.153   0.000
    1UNL     O7   16   0.515  -0.288  -0.051
    1UNL    C10   17   0.501  -0.054  -0.104
    1UNL     O8   18   0.590  -0.071  -0.219
    1UNL    C11   19   0.510   0.091  -0.033
    1UNL     O9   20   0.649   0.113  -0.005
    1UNL    C12   21   0.072   0.164   0.036
    1UNL    C13   22  -0.001   0.296   0.015
    1UNL    O10   23   0.091   0.407   0.018
    1UNL    C14   24  -0.128   0.317   0.099
    1UNL     N1   25  -0.248   0.234   0.069
    1UNL    C15   26  -0.368   0.259   0.155
    1UNL    C16   27  -0.497   0.197   0.101
    1UNL    C17   28  -0.467   0.057   0.064
    1UNL    C18   29  -0.343   0.000   0.052
    1UNL     N2   30  -0.352  -0.138   0.046
    1UNL    C19   31  -0.484  -0.169   0.044
    1UNL    C20   32  -0.547  -0.293   0.055
    1UNL    C21   33  -0.684  -0.292   0.066
    1UNL    C22   34  -0.759  -0.179   0.054
    1UNL    C23   35  -0.699  -0.055   0.059
    1UNL    C24   36  -0.558  -0.049   0.056
    1UNL    C25   37  -0.218   0.084   0.046
    1UNL    C26   38  -0.138   0.063  -0.080
    1UNL    C27   39   0.010   0.046  -0.040
    1UNL     H1   40  -0.013  -0.363  -0.248
    1UNL     H2   41  -0.131  -0.280  -0.350
    1UNL     H3   42  -0.179  -0.336  -0.202
    1UNL     H4   43   0.258   0.029  -0.279
    1UNL     H5   44   0.251   0.273   0.055
    1UNL     H6   45   0.456   0.196   0.146
    1UNL     H7   46   0.513  -0.201   0.218
    1UNL     H8   47   0.264  -0.106   0.055
    1UNL     H9   48   0.261  -0.161   0.227
    1UNL    H10   49   0.350  -0.321   0.011
    1UNL    H11   50   0.657  -0.151   0.007
    1UNL    H12   51   0.571  -0.300  -0.135
    1UNL    H13   52   0.399  -0.081  -0.141
    1UNL    H14   53   0.680  -0.031  -0.189
    1UNL    H15   54   0.484   0.166  -0.109
    1UNL    H16   55   0.668   0.101   0.092
    1UNL    H17   56   0.064   0.153   0.140
    1UNL    H18   57  -0.023   0.284  -0.090
    1UNL    H19   58   0.053   0.503   0.012
    1UNL    H20   59  -0.103   0.325   0.210
    1UNL    H21   60  -0.155   0.420   0.101
    1UNL    H22   61  -0.371   0.365   0.170
    1UNL    H23   62  -0.342   0.226   0.261
    1UNL    H24   63  -0.528   0.255   0.016
    1UNL    H25   64  -0.577   0.204   0.175
    1UNL    H26   65  -0.283  -0.199   0.002
    1UNL    H27   66  -0.488  -0.386   0.060
    1UNL    H28   67  -0.743  -0.386   0.068
    1UNL    H29   68  -0.861  -0.183   0.078
    1UNL    H30   69  -0.760   0.039   0.087
    1UNL    H31   70  -0.160   0.056   0.137
    1UNL    H32   71  -0.173   0.142  -0.149
    1UNL    H33   72  -0.174  -0.030  -0.125
    1UNL    H34   73  -0.001  -0.047   0.030
   0.00000   0.00000   0.00000   0.00000   0.00000   0.00000   0.00000   0.00000   0.00000
Generated with MDTraj, t= 9.0
 73
    1UNL     C1    1  -0.089  -0.304  -0.249
    1UNL     O1    2  -0.045  -0.195  -0.168
    1UNL     C2    3   0.055  -0.122  -0.231
    1UNL     O2    4   0.112  -0.148  -0.337
    1UNL     C3    5   0.098  -0.005  -0.151
    1UNL     C4    6   0.200   0.072  -0.202
    1UNL     O3    7   0.263   0.176  -0.139
    1UNL     C5    8   0.236   0.187  -0.001
    1UNL     O4    9   0.284   0.086   0.091
    1UNL     C6   10   0.426   0.080   0.112
    1UNL     O5   11   0.470  -0.029   0.204
    1UNL     C7   12   0.443  -0.155   0.147
    1UNL     C8   13   0.286  -0.187   0.149
    1UNL     O6   14   0.251  -0.307   0.109
    1UNL     C9   15   0.511  -0.156   0.006
    1UNL     O7   16   0.516  -0.285  -0.068
    1UNL    C10   17   0.480  -0.045  -0.091
    1UNL     O8   18   0.561  -0.047  -0.214
    1UNL    C11   19   0.500   0.089  -0.023
    1UNL     O9   20   0.634   0.125  -0.020
    1UNL    C12   21   0.076   0.173   0.030
    1UNL    C13   22   0.009   0.312   0.000
    1UNL    O10   23   0.097   0.419   0.038
    1UNL    C14   24  -0.120   0.319   0.082
    1UNL     N1   25  -0.237   0.236   0.051
    1UNL    C15   26  -0.366   0.281   0.120
    1UNL    C16   27  -0.496   0.206   0.085
    1UNL    C17   28  -0.465   0.059   0.075
    1UNL    C18   29  -0.337   0.011   0.048
    1UNL     N2   30  -0.337  -0.126   0.026
    1UNL    C19   31  -0.470  -0.167   0.041
    1UNL    C20   32  -0.528  -0.295   0.028
    1UNL    C21   33  -0.664  -0.310   0.055
    1UNL    C22   34  -0.738  -0.201   0.101
    1UNL    C23   35  -0.693  -0.070   0.099
    1UNL    C24   36  -0.552  -0.055   0.080
    1UNL    C25   37  -0.208   0.093   0.055
    1UNL    C26   38  -0.123   0.048  -0.064
    1UNL    C27   39   0.026   0.041  -0.026
    1UNL     H1   40  -0.117  -0.381  -0.185
    1UNL     H2   41  -0.016  -0.349  -0.322
    1UNL     H3   42  -0.160  -0.256  -0.310
    1UNL     H4   43   0.231   0.062  -0.305
    1UNL     H5   44   0.273   0.283   0.035
    1UNL     H6   45   0.448   0.175   0.161
    1UNL     H7   46   0.487  -0.238   0.220
    1UNL     H8   47   0.237  -0.106   0.086
    1UNL     H9   48   0.251  -0.176   0.251
    1UNL    H10   49   0.287  -0.326   0.019
    1UNL    H11   50   0.622  -0.144   0.021
    1UNL    H12   51   0.546  -0.264  -0.155
    1UNL    H13   52   0.374  -0.054  -0.128
    1UNL    H14   53   0.646  -0.003  -0.191
    1UNL    H15   54   0.455   0.164  -0.094
    1UNL    H16   55   0.657   0.092   0.070
    1UNL    H17   56   0.076   0.170   0.135
    1UNL    H18   57  -0.021   0.310  -0.105
    1UNL    H19   58   0.046   0.494   0.001
    1UNL    H20   59  -0.107   0.320   0.193
    1UNL    H21   60  -0.152   0.420   0.079
    1UNL    H22   61  -0.370   0.388   0.129
    1UNL    H23   62  -0.336   0.262   0.229
    1UNL    H24   63  -0.536   0.251  -0.006
    1UNL    H25   64  -0.569   0.237   0.159
    1UNL    H26   65  -0.257  -0.182  -0.007
    1UNL    H27   66  -0.478  -0.379  -0.025
    1UNL    H28   67  -0.713  -0.402   0.043
    1UNL    H29   68  -0.848  -0.220   0.127
    1UNL    H30   69  -0.757   0.008   0.144
    1UNL    H31   70  -0.158   0.057   0.148
    1UNL    H32   71  -0.123   0.132  -0.136
    1UNL    H33   72  -0.162  -0.041  -0.115
    1UNL    H34   73   0.045  -0.035   0.059
   0.00000   0.00000   0.00000   0.00000   0.00000   0.00000   0.00000   0.00000   0.00000
Generated with MDTraj, t= 10.0
 73
    1UNL     C1    1  -0.041  -0.316  -0.245
    1UNL     O1    2  -0.031  -0.192  -0.182
    1UNL     C2    3   0.064  -0.106  -0.236
    1UNL     O2    4   0.129  -0.123  -0.338
    1UNL     C3    5   0.099   0.010  -0.153
    1UNL     C4    6   0.201   0.092  -0.186
    1UNL     O3    7   0.252   0.192  -0.107
    1UNL     C5    8   0.221   0.176   0.030
    1UNL     O4    9   0.278   0.063   0.091
    1UNL     C6   10   0.421   0.077   0.108
    1UNL     O5   11   0.475  -0.024   0.193
    1UNL     C7   12   0.455  -0.149   0.130
    1UNL     C8   13   0.306  -0.192   0.126
    1UNL     O6   14   0.287  -0.331   0.124
    1UNL     C9   15   0.523  -0.175  -0.000
    1UNL     O7   16   0.470  -0.296  -0.066
    1UNL    C10   17   0.487  -0.066  -0.093
    1UNL     O8   18   0.556  -0.075  -0.214
    1UNL    C11   19   0.502   0.076  -0.030
    1UNL     O9   20   0.640   0.095  -0.005
    1UNL    C12   21   0.057   0.178   0.042
    1UNL    C13   22  -0.008   0.315  -0.010
    1UNL    O10   23   0.079   0.424   0.025
    1UNL    C14   24  -0.141   0.339   0.060
    1UNL     N1   25  -0.265   0.257   0.037
    1UNL    C15   26  -0.389   0.300   0.112
    1UNL    C16   27  -0.504   0.197   0.105
    1UNL    C17   28  -0.464   0.055   0.083
    1UNL    C18   29  -0.341   0.019   0.039
    1UNL     N2   30  -0.335  -0.121   0.027
    1UNL    C19   31  -0.459  -0.170   0.056
    1UNL    C20   32  -0.512  -0.297   0.036
    1UNL    C21   33  -0.647  -0.309   0.062
    1UNL    C22   34  -0.735  -0.203   0.098
    1UNL    C23   35  -0.681  -0.079   0.113
    1UNL    C24   36  -0.541  -0.062   0.100
    1UNL    C25   37  -0.222   0.116   0.037
    1UNL    C26   38  -0.133   0.078  -0.084
    1UNL    C27   39   0.010   0.054  -0.038
    1UNL     H1   40  -0.143  -0.346  -0.223
    1UNL     H2   41   0.021  -0.397  -0.194
    1UNL     H3   42  -0.010  -0.307  -0.349
    1UNL     H4   43   0.248   0.079  -0.283
    1UNL     H5   44   0.260   0.275   0.069
    1UNL     H6   45   0.432   0.164   0.169
    1UNL     H7   46   0.501  -0.212   0.220
    1UNL     H8   47   0.249  -0.140   0.040
    1UNL     H9   48   0.263  -0.146   0.216
    1UNL    H10   49   0.327  -0.363   0.041
    1UNL    H11   50   0.635  -0.189   0.010
    1UNL    H12   51   0.468  -0.277  -0.161
    1UNL    H13   52   0.373  -0.070  -0.110
    1UNL    H14   53   0.644  -0.041  -0.198
    1UNL    H15   54   0.478   0.162  -0.100
    1UNL    H16   55   0.658   0.040   0.074
    1UNL    H17   56   0.040   0.171   0.145
    1UNL    H18   57  -0.001   0.295  -0.120
    1UNL    H19   58   0.070   0.504  -0.022
    1UNL    H20   59  -0.118   0.328   0.169
    1UNL    H21   60  -0.153   0.445   0.068
    1UNL    H22   61  -0.410   0.406   0.103
    1UNL    H23   62  -0.346   0.297   0.218
    1UNL    H24   63  -0.578   0.235   0.035
    1UNL    H25   64  -0.547   0.205   0.204
    1UNL    H26   65  -0.254  -0.168  -0.019
    1UNL    H27   66  -0.465  -0.372  -0.014
    1UNL    H28   67  -0.695  -0.403   0.023
    1UNL    H29   68  -0.834  -0.214   0.118
    1UNL    H30   69  -0.741   0.003   0.122
    1UNL    H31   70  -0.169   0.092   0.132
    1UNL    H32   71  -0.135   0.161  -0.155
    1UNL    H33   72  -0.171  -0.009  -0.140
    1UNL    H34   73   0.012  -0.022   0.049
   0.00000   0.00000   0.00000   0.00000   0.00000   0.00000   0.00000   0.00000   0.00000
Generated with MDTraj, t= 11.0
 73
    1UNL     C1    1  -0.017  -0.303  -0.249
    1UNL     O1    2  -0.016  -0.173  -0.192
    1UNL     C2    3   0.084  -0.091  -0.240
    1UNL     O2    4   0.173  -0.121  -0.320
    1UNL     C3    5   0.100   0.038  -0.159
    1UNL     C4    6   0.203   0.119  -0.190
    1UNL     O3    7   0.264   0.208  -0.111
    1UNL     C5    8   0.216   0.189   0.028
    1UNL     O4    9   0.260   0.069   0.075
    1UNL     C6   10   0.401   0.069   0.090
    1UNL     O5   11   0.459  -0.022   0.186
    1UNL     C7   12   0.451  -0.164   0.140
    1UNL     C8   13   0.301  -0.208   0.146
    1UNL     O6   14   0.286  -0.354   0.131
    1UNL     C9   15   0.512  -0.182  -0.003
    1UNL     O7   16   0.486  -0.315  -0.051
    1UNL    C10   17   0.462  -0.074  -0.105
    1UNL     O8   18   0.548  -0.079  -0.215
    1UNL    C11   19   0.481   0.062  -0.043
    1UNL     O9   20   0.619   0.094  -0.023
    1UNL    C12   21   0.065   0.190   0.038
    1UNL    C13   22   0.002   0.324  -0.006
    1UNL    O10   23   0.088   0.437   0.031
    1UNL    C14   24  -0.136   0.343   0.056
    1UNL     N1   25  -0.254   0.247   0.042
    1UNL    C15   26  -0.376   0.289   0.131
    1UNL    C16   27  -0.504   0.205   0.093
    1UNL    C17   28  -0.472   0.061   0.069
    1UNL    C18   29  -0.343   0.020   0.049
    1UNL     N2   30  -0.345  -0.118   0.042
    1UNL    C19   31  -0.470  -0.170   0.044
    1UNL    C20   32  -0.513  -0.305   0.052
    1UNL    C21   33  -0.647  -0.322   0.084
    1UNL    C22   34  -0.736  -0.213   0.109
    1UNL    C23   35  -0.689  -0.086   0.096
    1UNL    C24   36  -0.551  -0.060   0.074
    1UNL    C25   37  -0.218   0.102   0.051
    1UNL    C26   38  -0.136   0.069  -0.071
    1UNL    C27   39   0.010   0.063  -0.042
    1UNL     H1   40  -0.090  -0.362  -0.188
    1UNL     H2   41   0.088  -0.343  -0.229
    1UNL     H3   42  -0.035  -0.308  -0.360
    1UNL     H4   43   0.249   0.099  -0.288
    1UNL     H5   44   0.265   0.278   0.080
    1UNL     H6   45   0.414   0.155   0.152
    1UNL     H7   46   0.511  -0.229   0.220
    1UNL     H8   47   0.243  -0.153   0.063
    1UNL     H9   48   0.239  -0.186   0.235
    1UNL    H10   49   0.349  -0.394   0.066
    1UNL    H11   50   0.625  -0.180  -0.007
    1UNL    H12   51   0.516  -0.316  -0.149
    1UNL    H13   52   0.353  -0.084  -0.141
    1UNL    H14   53   0.626  -0.012  -0.213
    1UNL    H15   54   0.461   0.150  -0.113
    1UNL    H16   55   0.657   0.042   0.051
    1UNL    H17   56   0.048   0.184   0.141
    1UNL    H18   57  -0.013   0.306  -0.117
    1UNL    H19   58   0.063   0.511  -0.024
    1UNL    H20   59  -0.106   0.357   0.162
    1UNL    H21   60  -0.178   0.441   0.043
    1UNL    H22   61  -0.385   0.397   0.121
    1UNL    H23   62  -0.349   0.283   0.241
    1UNL    H24   63  -0.545   0.246   0.000
    1UNL    H25   64  -0.582   0.215   0.168
    1UNL    H26   65  -0.262  -0.177   0.018
    1UNL    H27   66  -0.441  -0.391   0.029
    1UNL    H28   67  -0.698  -0.412   0.083
    1UNL    H29   68  -0.837  -0.232   0.155
    1UNL    H30   69  -0.753   0.008   0.113
    1UNL    H31   70  -0.166   0.080   0.146
    1UNL    H32   71  -0.169   0.136  -0.151
    1UNL    H33   72  -0.168  -0.029  -0.112
    1UNL    H34   73   0.022  -0.021   0.035
   0.00000   0.00000   0.00000   0.00000   0.00000   0.00000   0.00000   0.00000   0.00000
Generated with MDTraj, t= 12.0
 73
    1UNL     C1    1  -0.017  -0.293  -0.278
    1UNL     O1    2   0.002  -0.186  -0.188
    1UNL     C2    3   0.099  -0.091  -0.226
    1UNL     O2    4   0.182  -0.109  -0.314
    1UNL     C3    5   0.109   0.031  -0.149
    1UNL     C4    6   0.210   0.120  -0.183
    1UNL     O3    7   0.259   0.225  -0.113
    1UNL     C5    8   0.220   0.206   0.025
    1UNL     O4    9   0.285   0.090   0.085
    1UNL     C6   10   0.422   0.077   0.093
    1UNL     O5   11   0.466  -0.024   0.182
    1UNL     C7   12   0.430  -0.165   0.135
    1UNL     C8   13   0.278  -0.197   0.153
    1UNL     O6   14   0.251  -0.338   0.121
    1UNL     C9   15   0.510  -0.183   0.002
    1UNL     O7   16   0.513  -0.315  -0.043
    1UNL    C10   17   0.458  -0.079  -0.103
    1UNL     O8   18   0.531  -0.095  -0.224
    1UNL    C11   19   0.486   0.064  -0.053
    1UNL     O9   20   0.624   0.085  -0.054
    1UNL    C12   21   0.070   0.186   0.044
    1UNL    C13   22  -0.014   0.313   0.017
    1UNL    O10   23   0.059   0.436   0.029
    1UNL    C14   24  -0.143   0.318   0.103
    1UNL     N1   25  -0.252   0.239   0.043
    1UNL    C15   26  -0.379   0.267   0.124
    1UNL    C16   27  -0.493   0.197   0.056
    1UNL    C17   28  -0.464   0.052   0.056
    1UNL    C18   29  -0.333   0.003   0.042
    1UNL     N2   30  -0.335  -0.135   0.048
    1UNL    C19   31  -0.469  -0.173   0.064
    1UNL    C20   32  -0.527  -0.303   0.086
    1UNL    C21   33  -0.665  -0.310   0.091
    1UNL    C22   34  -0.744  -0.186   0.099
    1UNL    C23   35  -0.692  -0.062   0.088
    1UNL    C24   36  -0.553  -0.057   0.078
    1UNL    C25   37  -0.214   0.095   0.038
    1UNL    C26   38  -0.129   0.065  -0.084
    1UNL    C27   39   0.019   0.059  -0.040
    1UNL     H1   40  -0.057  -0.383  -0.222
    1UNL     H2   41   0.086  -0.322  -0.308
    1UNL     H3   42  -0.077  -0.278  -0.374
    1UNL     H4   43   0.248   0.121  -0.286
    1UNL     H5   44   0.259   0.291   0.088
    1UNL     H6   45   0.450   0.171   0.133
    1UNL     H7   46   0.481  -0.225   0.223
    1UNL     H8   47   0.203  -0.140   0.087
    1UNL     H9   48   0.244  -0.176   0.254
    1UNL    H10   49   0.303  -0.369   0.044
    1UNL    H11   50   0.619  -0.165   0.019
    1UNL    H12   51   0.549  -0.309  -0.131
    1UNL    H13   52   0.348  -0.101  -0.126
    1UNL    H14   53   0.607  -0.038  -0.219
    1UNL    H15   54   0.444   0.141  -0.127
    1UNL    H16   55   0.645   0.133   0.030
    1UNL    H17   56   0.066   0.166   0.147
    1UNL    H18   57  -0.043   0.310  -0.092
    1UNL    H19   58   0.013   0.515  -0.013
    1UNL    H20   59  -0.143   0.288   0.210
    1UNL    H21   60  -0.164   0.423   0.117
    1UNL    H22   61  -0.398   0.375   0.123
    1UNL    H23   62  -0.358   0.237   0.231
    1UNL    H24   63  -0.503   0.231  -0.049
    1UNL    H25   64  -0.583   0.214   0.114
    1UNL    H26   65  -0.252  -0.191   0.077
    1UNL    H27   66  -0.468  -0.390   0.074
    1UNL    H28   67  -0.718  -0.410   0.101
    1UNL    H29   68  -0.851  -0.191   0.123
    1UNL    H30   69  -0.746   0.028   0.114
    1UNL    H31   70  -0.153   0.074   0.127
    1UNL    H32   71  -0.132   0.130  -0.174
    1UNL    H33   72  -0.180  -0.027  -0.124
    1UNL    H34   73   0.030  -0.029   0.030
   0.00000   0.00000   0.00000   0.00000   0.00000   0.00000   0.00000   0.00000   0.00000
Generated with MDTraj, t= 13.0
 73
    1UNL     C1    1  -0.010  -0.300  -0.275
    1UNL     O1    2  -0.008  -0.184  -0.199
    1UNL     C2    3   0.080  -0.081  -0.237
    1UNL     O2    4   0.156  -0.088  -0.332
    1UNL     C3    5   0.102   0.028  -0.151
    1UNL     C4    6   0.209   0.110  -0.182
    1UNL     O3    7   0.257   0.213  -0.103
    1UNL     C5    8   0.224   0.195   0.027
    1UNL     O4    9   0.302   0.094   0.099
    1UNL     C6   10   0.445   0.088   0.085
    1UNL     O5   11   0.498  -0.005   0.173
    1UNL     C7   12   0.452  -0.140   0.137
    1UNL     C8   13   0.301  -0.163   0.142
    1UNL     O6   14   0.252  -0.293   0.101
    1UNL     C9   15   0.510  -0.184   0.003
    1UNL     O7   16   0.471  -0.313  -0.049
    1UNL    C10   17   0.471  -0.079  -0.100
    1UNL     O8   18   0.529  -0.122  -0.222
    1UNL    C11   19   0.505   0.074  -0.059
    1UNL     O9   20   0.641   0.087  -0.043
    1UNL    C12   21   0.072   0.175   0.053
    1UNL    C13   22   0.000   0.306   0.023
    1UNL    O10   23   0.091   0.403   0.069
    1UNL    C14   24  -0.141   0.324   0.086
    1UNL     N1   25  -0.249   0.233   0.046
    1UNL    C15   26  -0.383   0.278   0.091
    1UNL    C16   27  -0.498   0.193   0.040
    1UNL    C17   28  -0.473   0.048   0.049
    1UNL    C18   29  -0.347  -0.001   0.064
    1UNL     N2   30  -0.351  -0.138   0.069
    1UNL    C19   31  -0.485  -0.179   0.065
    1UNL    C20   32  -0.543  -0.299   0.102
    1UNL    C21   33  -0.680  -0.308   0.116
    1UNL    C22   34  -0.764  -0.199   0.078
    1UNL    C23   35  -0.707  -0.074   0.061
    1UNL    C24   36  -0.566  -0.066   0.055
    1UNL    C25   37  -0.219   0.085   0.056
    1UNL    C26   38  -0.128   0.046  -0.062
    1UNL    C27   39   0.027   0.052  -0.027
    1UNL     H1   40  -0.109  -0.354  -0.261
    1UNL     H2   41   0.066  -0.364  -0.234
    1UNL     H3   42   0.010  -0.288  -0.382
    1UNL     H4   43   0.268   0.099  -0.272
    1UNL     H5   44   0.245   0.293   0.072
    1UNL     H6   45   0.476   0.184   0.123
    1UNL     H7   46   0.496  -0.214   0.217
    1UNL     H8   47   0.258  -0.086   0.069
    1UNL     H9   48   0.256  -0.147   0.240
    1UNL    H10   49   0.313  -0.319   0.029
    1UNL    H11   50   0.618  -0.201   0.010
    1UNL    H12   51   0.479  -0.306  -0.144
    1UNL    H13   52   0.360  -0.083  -0.122
    1UNL    H14   53   0.610  -0.064  -0.226
    1UNL    H15   54   0.454   0.144  -0.132
    1UNL    H16   55   0.673   0.163   0.011
    1UNL    H17   56   0.052   0.154   0.155
    1UNL    H18   57   0.001   0.319  -0.089
    1UNL    H19   58   0.052   0.494   0.036
    1UNL    H20   59  -0.123   0.335   0.194
    1UNL    H21   60  -0.183   0.423   0.070
    1UNL    H22   61  -0.392   0.385   0.070
    1UNL    H23   62  -0.385   0.264   0.203
    1UNL    H24   63  -0.522   0.213  -0.066
    1UNL    H25   64  -0.583   0.203   0.108
    1UNL    H26   65  -0.266  -0.198   0.062
    1UNL    H27   66  -0.476  -0.380   0.118
    1UNL    H28   67  -0.717  -0.404   0.130
    1UNL    H29   68  -0.866  -0.204   0.098
    1UNL    H30   69  -0.754   0.018   0.063
    1UNL    H31   70  -0.154   0.078   0.142
    1UNL    H32   71  -0.170   0.112  -0.141
    1UNL    H33   72  -0.145  -0.054  -0.108
    1UNL    H34   73   0.057  -0.036   0.036
   0.00000   0.00000   0.00000   0.00000   0.00000   0.00000   0.00000   0.00000   0.00000
Generated with MDTraj, t= 14.0
 73
    1UNL     C1    1  -0.037  -0.297  -0.273
    1UNL     O1    2  -0.011  -0.181  -0.191
    1UNL     C2    3   0.071  -0.086  -0.245
    1UNL     O2    4   0.123  -0.088  -0.355
    1UNL     C3    5   0.112   0.021  -0.148
    1UNL     C4    6   0.215   0.098  -0.186
    1UNL     O3    7   0.263   0.204  -0.113
    1UNL     C5    8   0.225   0.196   0.025
    1UNL     O4    9   0.287   0.082   0.091
    1UNL     C6   10   0.431   0.089   0.088
    1UNL     O5   11   0.505  -0.010   0.169
    1UNL     C7   12   0.471  -0.151   0.138
    1UNL     C8   13   0.314  -0.176   0.161
    1UNL     O6   14   0.273  -0.303   0.146
    1UNL     C9   15   0.510  -0.181  -0.010
    1UNL     O7   16   0.465  -0.311  -0.053
    1UNL    C10   17   0.459  -0.067  -0.101
    1UNL     O8   18   0.531  -0.091  -0.226
    1UNL    C11   19   0.492   0.081  -0.055
    1UNL     O9   20   0.629   0.112  -0.041
    1UNL    C12   21   0.075   0.167   0.049
    1UNL    C13   22  -0.004   0.298   0.033
    1UNL    O10   23   0.081   0.409   0.064
    1UNL    C14   24  -0.128   0.301   0.113
    1UNL     N1   25  -0.237   0.223   0.051
    1UNL    C15   26  -0.380   0.277   0.074
    1UNL    C16   27  -0.489   0.199  -0.001
    1UNL    C17   28  -0.465   0.053   0.039
    1UNL    C18   29  -0.340  -0.001   0.071
    1UNL     N2   30  -0.349  -0.137   0.093
    1UNL    C19   31  -0.483  -0.171   0.091
    1UNL    C20   32  -0.543  -0.290   0.111
    1UNL    C21   33  -0.678  -0.302   0.089
    1UNL    C22   34  -0.759  -0.192   0.064
    1UNL    C23   35  -0.694  -0.069   0.046
    1UNL    C24   36  -0.558  -0.057   0.062
    1UNL    C25   37  -0.217   0.080   0.061
    1UNL    C26   38  -0.128   0.043  -0.056
    1UNL    C27   39   0.027   0.041  -0.023
    1UNL     H1   40  -0.129  -0.348  -0.238
    1UNL     H2   41   0.039  -0.367  -0.275
    1UNL     H3   42  -0.050  -0.262  -0.373
    1UNL     H4   43   0.260   0.077  -0.281
    1UNL     H5   44   0.246   0.287   0.077
    1UNL     H6   45   0.455   0.189   0.127
    1UNL     H7   46   0.528  -0.225   0.209
    1UNL     H8   47   0.260  -0.108   0.093
    1UNL     H9   48   0.303  -0.144   0.264
    1UNL    H10   49   0.336  -0.332   0.076
    1UNL    H11   50   0.618  -0.178  -0.023
    1UNL    H12   51   0.492  -0.319  -0.150
    1UNL    H13   52   0.349  -0.083  -0.119
    1UNL    H14   53   0.606  -0.027  -0.235
    1UNL    H15   54   0.440   0.165  -0.110
    1UNL    H16   55   0.657   0.100   0.051
    1UNL    H17   56   0.058   0.138   0.151
    1UNL    H18   57  -0.022   0.321  -0.074
    1UNL    H19   58   0.030   0.498   0.055
    1UNL    H20   59  -0.113   0.277   0.219
    1UNL    H21   60  -0.155   0.405   0.121
    1UNL    H22   61  -0.390   0.380   0.034
    1UNL    H23   62  -0.392   0.278   0.186
    1UNL    H24   63  -0.462   0.193  -0.108
    1UNL    H25   64  -0.593   0.230   0.019
    1UNL    H26   65  -0.276  -0.207   0.113
    1UNL    H27   66  -0.473  -0.378   0.114
    1UNL    H28   67  -0.722  -0.403   0.083
    1UNL    H29   68  -0.872  -0.202   0.062
    1UNL    H30   69  -0.753   0.030   0.040
    1UNL    H31   70  -0.154   0.060   0.146
    1UNL    H32   71  -0.131   0.111  -0.144
    1UNL    H33   72  -0.171  -0.053  -0.095
    1UNL    H34   73   0.044  -0.047   0.041
   0.00000   0.00000   0.00000   0.00000   0.00000   0.00000   0.00000   0.00000   0.00000
Generated with MDTraj, t= 15.0
 73
    1UNL     C1    1  -0.063  -0.285  -0.283
    1UNL     O1    2  -0.033  -0.184  -0.192
    1UNL     C2    3   0.057  -0.093  -0.242
    1UNL     O2    4   0.109  -0.094  -0.353
    1UNL     C3    5   0.098   0.015  -0.147
    1UNL     C4    6   0.189   0.103  -0.184
    1UNL     O3    7   0.242   0.201  -0.118
    1UNL     C5    8   0.224   0.184   0.024
    1UNL     O4    9   0.298   0.072   0.078
    1UNL     C6   10   0.434   0.091   0.099
    1UNL     O5   11   0.497  -0.009   0.180
    1UNL     C7   12   0.473  -0.140   0.136
    1UNL     C8   13   0.336  -0.208   0.182
    1UNL     O6   14   0.336  -0.351   0.180
    1UNL     C9   15   0.517  -0.163  -0.012
    1UNL     O7   16   0.483  -0.294  -0.063
    1UNL    C10   17   0.451  -0.052  -0.095
    1UNL     O8   18   0.507  -0.055  -0.226
    1UNL    C11   19   0.497   0.084  -0.043
    1UNL     O9   20   0.636   0.085  -0.051
    1UNL    C12   21   0.076   0.168   0.054
    1UNL    C13   22   0.002   0.300   0.015
    1UNL    O10   23   0.087   0.409   0.059
    1UNL    C14   24  -0.131   0.316   0.090
    1UNL     N1   25  -0.245   0.232   0.057
    1UNL    C15   26  -0.384   0.278   0.082
    1UNL    C16   27  -0.484   0.194   0.001
    1UNL    C17   28  -0.454   0.047   0.032
    1UNL    C18   29  -0.334  -0.005   0.070
    1UNL     N2   30  -0.345  -0.136   0.113
    1UNL    C19   31  -0.478  -0.169   0.088
    1UNL    C20   32  -0.551  -0.290   0.121
    1UNL    C21   33  -0.687  -0.296   0.091
    1UNL    C22   34  -0.745  -0.180   0.038
    1UNL    C23   35  -0.681  -0.060   0.006
    1UNL    C24   36  -0.550  -0.058   0.045
    1UNL    C25   37  -0.218   0.082   0.074
    1UNL    C26   38  -0.129   0.045  -0.045
    1UNL    C27   39   0.021   0.038  -0.020
    1UNL     H1   40  -0.059  -0.380  -0.227
    1UNL     H2   41  -0.009  -0.293  -0.369
    1UNL     H3   42  -0.166  -0.264  -0.304
    1UNL     H4   43   0.214   0.099  -0.289
    1UNL     H5   44   0.267   0.261   0.084
    1UNL     H6   45   0.465   0.189   0.146
    1UNL     H7   46   0.553  -0.201   0.193
    1UNL     H8   47   0.262  -0.176   0.107
    1UNL     H9   48   0.313  -0.179   0.287
    1UNL    H10   49   0.376  -0.388   0.098
    1UNL    H11   50   0.625  -0.143  -0.013
    1UNL    H12   51   0.479  -0.293  -0.161
    1UNL    H13   52   0.341  -0.069  -0.092
    1UNL    H14   53   0.599  -0.035  -0.226
    1UNL    H15   54   0.458   0.170  -0.106
    1UNL    H16   55   0.679   0.124   0.028
    1UNL    H17   56   0.078   0.151   0.162
    1UNL    H18   57  -0.013   0.309  -0.092
    1UNL    H19   58   0.037   0.492   0.042
    1UNL    H20   59  -0.110   0.305   0.197
    1UNL    H21   60  -0.163   0.419   0.084
    1UNL    H22   61  -0.380   0.383   0.048
    1UNL    H23   62  -0.418   0.273   0.187
    1UNL    H24   63  -0.467   0.213  -0.108
    1UNL    H25   64  -0.587   0.207   0.040
    1UNL    H26   65  -0.282  -0.195   0.168
    1UNL    H27   66  -0.502  -0.376   0.148
    1UNL    H28   67  -0.737  -0.395   0.108
    1UNL    H29   68  -0.848  -0.176   0.023
    1UNL    H30   69  -0.739   0.018  -0.034
    1UNL    H31   70  -0.168   0.079   0.170
    1UNL    H32   71  -0.158   0.121  -0.120
    1UNL    H33   72  -0.151  -0.053  -0.097
    1UNL    H34   73   0.030  -0.047   0.047
   0.00000   0.00000   0.00000   0.00000   0.00000   0.00000   0.00000   0.00000   0.00000
Generated with MDTraj, t= 16.0
 73
    1UNL     C1    1  -0.077  -0.271  -0.285
    1UNL     O1    2  -0.052  -0.170  -0.193
    1UNL     C2    3   0.048  -0.085  -0.242
    1UNL     O2    4   0.106  -0.093  -0.349
    1UNL     C3    5   0.090   0.014  -0.150
    1UNL     C4    6   0.200   0.087  -0.180
    1UNL     O3    7   0.251   0.181  -0.094
    1UNL     C5    8   0.226   0.166   0.044
    1UNL     O4    9   0.297   0.062   0.111
    1UNL     C6   10   0.440   0.082   0.097
    1UNL     O5   11   0.526  -0.009   0.178
    1UNL     C7   12   0.506  -0.143   0.146
    1UNL     C8   13   0.370  -0.198   0.171
    1UNL     O6   14   0.367  -0.342   0.152
    1UNL     C9   15   0.537  -0.165  -0.005
    1UNL     O7   16   0.504  -0.290  -0.063
    1UNL    C10   17   0.462  -0.065  -0.094
    1UNL     O8   18   0.512  -0.080  -0.225
    1UNL    C11   19   0.494   0.076  -0.050
    1UNL     O9   20   0.629   0.109  -0.062
    1UNL    C12   21   0.071   0.162   0.062
    1UNL    C13   22   0.008   0.298   0.008
    1UNL    O10   23   0.088   0.416   0.035
    1UNL    C14   24  -0.128   0.319   0.087
    1UNL     N1   25  -0.244   0.233   0.059
    1UNL    C15   26  -0.384   0.293   0.071
    1UNL    C16   27  -0.495   0.206   0.001
    1UNL    C17   28  -0.479   0.057   0.039
    1UNL    C18   29  -0.357   0.016   0.078
    1UNL     N2   30  -0.369  -0.114   0.122
    1UNL    C19   31  -0.495  -0.163   0.090
    1UNL    C20   32  -0.558  -0.289   0.110
    1UNL    C21   33  -0.686  -0.309   0.074
    1UNL    C22   34  -0.754  -0.202   0.020
    1UNL    C23   35  -0.699  -0.075   0.008
    1UNL    C24   36  -0.568  -0.052   0.048
    1UNL    C25   37  -0.227   0.086   0.083
    1UNL    C26   38  -0.139   0.033  -0.036
    1UNL    C27   39   0.015   0.039  -0.016
    1UNL     H1   40   0.016  -0.322  -0.318
    1UNL     H2   41  -0.129  -0.234  -0.364
    1UNL     H3   42  -0.143  -0.343  -0.235
    1UNL     H4   43   0.249   0.066  -0.275
    1UNL     H5   44   0.263   0.257   0.091
    1UNL     H6   45   0.475   0.179   0.145
    1UNL     H7   46   0.586  -0.196   0.209
    1UNL     H8   47   0.297  -0.163   0.094
    1UNL     H9   48   0.338  -0.177   0.277
    1UNL    H10   49   0.415  -0.378   0.075
    1UNL    H11   50   0.647  -0.144  -0.007
    1UNL    H12   51   0.474  -0.286  -0.153
    1UNL    H13   52   0.355  -0.091  -0.103
    1UNL    H14   53   0.607  -0.059  -0.222
    1UNL    H15   54   0.432   0.145  -0.112
    1UNL    H16   55   0.662   0.159   0.018
    1UNL    H17   56   0.046   0.147   0.166
    1UNL    H18   57  -0.014   0.289  -0.096
    1UNL    H19   58   0.053   0.501   0.020
    1UNL    H20   59  -0.113   0.307   0.194
    1UNL    H21   60  -0.159   0.422   0.071
    1UNL    H22   61  -0.390   0.394   0.024
    1UNL    H23   62  -0.396   0.305   0.179
    1UNL    H24   63  -0.483   0.217  -0.110
    1UNL    H25   64  -0.587   0.244   0.048
    1UNL    H26   65  -0.291  -0.175   0.144
    1UNL    H27   66  -0.493  -0.366   0.156
    1UNL    H28   67  -0.728  -0.401   0.072
    1UNL    H29   68  -0.864  -0.221   0.007
    1UNL    H30   69  -0.761  -0.001  -0.038
    1UNL    H31   70  -0.186   0.062   0.181
    1UNL    H32   71  -0.154   0.083  -0.135
    1UNL    H33   72  -0.171  -0.075  -0.049
    1UNL    H34   73   0.037  -0.042   0.052
   0.00000   0.00000   0.00000   0.00000   0.00000   0.00000   0.00000   0.00000   0.00000
Generated with MDTraj, t= 17.0
 73
    1UNL     C1    1  -0.100  -0.259  -0.305
    1UNL     O1    2  -0.051  -0.188  -0.189
    1UNL     C2    3   0.046  -0.099  -0.228
    1UNL     O2    4   0.097  -0.095  -0.340
    1UNL     C3    5   0.088  -0.008  -0.123
    1UNL     C4    6   0.188   0.083  -0.165
    1UNL     O3    7   0.238   0.191  -0.094
    1UNL     C5    8   0.220   0.172   0.046
    1UNL     O4    9   0.289   0.053   0.097
    1UNL     C6   10   0.429   0.086   0.092
    1UNL     O5   11   0.521   0.003   0.173
    1UNL     C7   12   0.508  -0.138   0.136
    1UNL     C8   13   0.364  -0.184   0.155
    1UNL     O6   14   0.353  -0.325   0.147
    1UNL     C9   15   0.564  -0.160  -0.008
    1UNL     O7   16   0.567  -0.298  -0.039
    1UNL    C10   17   0.483  -0.074  -0.110
    1UNL     O8   18   0.542  -0.095  -0.235
    1UNL    C11   19   0.489   0.074  -0.056
    1UNL     O9   20   0.614   0.123  -0.064
    1UNL    C12   21   0.062   0.159   0.070
    1UNL    C13   22  -0.003   0.295   0.024
    1UNL    O10   23   0.073   0.412   0.045
    1UNL    C14   24  -0.139   0.317   0.091
    1UNL     N1   25  -0.239   0.228   0.032
    1UNL    C15   26  -0.377   0.283   0.061
    1UNL    C16   27  -0.491   0.199   0.012
    1UNL    C17   28  -0.469   0.059   0.049
    1UNL    C18   29  -0.349   0.008   0.093
    1UNL     N2   30  -0.364  -0.127   0.109
    1UNL    C19   31  -0.494  -0.161   0.091
    1UNL    C20   32  -0.560  -0.285   0.094
    1UNL    C21   33  -0.683  -0.283   0.050
    1UNL    C22   34  -0.767  -0.170   0.021
    1UNL    C23   35  -0.702  -0.051   0.022
    1UNL    C24   36  -0.564  -0.041   0.062
    1UNL    C25   37  -0.223   0.083   0.075
    1UNL    C26   38  -0.137   0.011  -0.033
    1UNL    C27   39   0.009   0.019   0.010
    1UNL     H1   40  -0.031  -0.231  -0.390
    1UNL     H2   41  -0.198  -0.232  -0.332
    1UNL     H3   42  -0.088  -0.371  -0.289
    1UNL     H4   43   0.222   0.078  -0.269
    1UNL     H5   44   0.257   0.264   0.096
    1UNL     H6   45   0.446   0.190   0.136
    1UNL     H7   46   0.582  -0.186   0.206
    1UNL     H8   47   0.291  -0.136   0.086
    1UNL     H9   48   0.337  -0.168   0.264
    1UNL    H10   49   0.407  -0.343   0.066
    1UNL    H11   50   0.670  -0.125  -0.011
    1UNL    H12   51   0.540  -0.314  -0.134
    1UNL    H13   52   0.381  -0.107  -0.125
    1UNL    H14   53   0.637  -0.063  -0.220
    1UNL    H15   54   0.417   0.136  -0.116
    1UNL    H16   55   0.645   0.117   0.031
    1UNL    H17   56   0.040   0.152   0.176
    1UNL    H18   57  -0.023   0.274  -0.079
    1UNL    H19   58   0.072   0.476  -0.027
    1UNL    H20   59  -0.129   0.311   0.199
    1UNL    H21   60  -0.178   0.415   0.059
    1UNL    H22   61  -0.372   0.373  -0.007
    1UNL    H23   62  -0.394   0.319   0.162
    1UNL    H24   63  -0.478   0.207  -0.100
    1UNL    H25   64  -0.583   0.236   0.062
    1UNL    H26   65  -0.286  -0.184   0.137
    1UNL    H27   66  -0.499  -0.371   0.107
    1UNL    H28   67  -0.730  -0.387   0.033
    1UNL    H29   68  -0.865  -0.196  -0.007
    1UNL    H30   69  -0.773   0.036   0.004
    1UNL    H31   70  -0.180   0.090   0.175
    1UNL    H32   71  -0.163   0.068  -0.125
    1UNL    H33   72  -0.157  -0.100  -0.044
    1UNL    H34   73   0.042  -0.059   0.076
   0.00000   0.00000   0.00000   0.00000   0.00000   0.00000   0.00000   0.00000   0.00000
Generated with MDTraj, t= 18.0
 73
    1UNL     C1    1  -0.097  -0.275  -0.273
    1UNL     O1    2  -0.058  -0.176  -0.182
    1UNL     C2    3   0.036  -0.097  -0.235
    1UNL     O2    4   0.092  -0.111  -0.342
    1UNL     C3    5   0.085   0.010  -0.150
    1UNL     C4    6   0.184   0.091  -0.192
    1UNL     O3    7   0.246   0.183  -0.123
    1UNL     C5    8   0.226   0.167   0.017
    1UNL     O4    9   0.314   0.070   0.086
    1UNL     C6   10   0.449   0.085   0.090
    1UNL     O5   11   0.509  -0.004   0.185
    1UNL     C7   12   0.495  -0.141   0.151
    1UNL     C8   13   0.354  -0.199   0.166
    1UNL     O6   14   0.340  -0.336   0.129
    1UNL     C9   15   0.563  -0.157   0.011
    1UNL     O7   16   0.585  -0.291  -0.019
    1UNL    C10   17   0.502  -0.066  -0.107
    1UNL     O8   18   0.575  -0.082  -0.219
    1UNL    C11   19   0.509   0.080  -0.061
    1UNL     O9   20   0.636   0.133  -0.087
    1UNL    C12   21   0.076   0.162   0.062
    1UNL    C13   22   0.003   0.295   0.032
    1UNL    O10   23   0.096   0.400   0.059
    1UNL    C14   24  -0.137   0.319   0.097
    1UNL     N1   25  -0.246   0.226   0.062
    1UNL    C15   26  -0.383   0.282   0.091
    1UNL    C16   27  -0.498   0.202   0.027
    1UNL    C17   28  -0.484   0.052   0.045
    1UNL    C18   29  -0.362   0.002   0.083
    1UNL     N2   30  -0.378  -0.131   0.099
    1UNL    C19   31  -0.512  -0.165   0.074
    1UNL    C20   32  -0.584  -0.289   0.086
    1UNL    C21   33  -0.714  -0.292   0.064
    1UNL    C22   34  -0.778  -0.172   0.027
    1UNL    C23   35  -0.721  -0.049   0.021
    1UNL    C24   36  -0.582  -0.047   0.044
    1UNL    C25   37  -0.229   0.075   0.083
    1UNL    C26   38  -0.134   0.027  -0.038
    1UNL    C27   39   0.018   0.030  -0.014
    1UNL     H1   40  -0.031  -0.265  -0.365
    1UNL     H2   41  -0.202  -0.261  -0.296
    1UNL     H3   42  -0.070  -0.372  -0.216
    1UNL     H4   43   0.220   0.085  -0.292
    1UNL     H5   44   0.263   0.268   0.056
    1UNL     H6   45   0.484   0.185   0.129
    1UNL     H7   46   0.563  -0.196   0.218
    1UNL     H8   47   0.286  -0.143   0.099
    1UNL     H9   48   0.315  -0.185   0.271
    1UNL    H10   49   0.431  -0.363   0.104
    1UNL    H11   50   0.668  -0.116   0.013
    1UNL    H12   51   0.640  -0.289  -0.103
    1UNL    H13   52   0.406  -0.104  -0.135
    1UNL    H14   53   0.663  -0.054  -0.199
    1UNL    H15   54   0.442   0.143  -0.129
    1UNL    H16   55   0.644   0.229  -0.076
    1UNL    H17   56   0.078   0.148   0.171
    1UNL    H18   57  -0.010   0.297  -0.078
    1UNL    H19   58   0.072   0.486   0.012
    1UNL    H20   59  -0.133   0.296   0.203
    1UNL    H21   60  -0.171   0.421   0.077
    1UNL    H22   61  -0.383   0.393   0.067
    1UNL    H23   62  -0.385   0.285   0.199
    1UNL    H24   63  -0.498   0.226  -0.083
    1UNL    H25   64  -0.589   0.235   0.081
    1UNL    H26   65  -0.299  -0.189   0.119
    1UNL    H27   66  -0.527  -0.379   0.111
    1UNL    H28   67  -0.763  -0.389   0.067
    1UNL    H29   68  -0.888  -0.186   0.021
    1UNL    H30   69  -0.782   0.032   0.010
    1UNL    H31   70  -0.184   0.055   0.180
    1UNL    H32   71  -0.147   0.091  -0.129
    1UNL    H33   72  -0.175  -0.077  -0.058
    1UNL    H34   73   0.046  -0.057   0.041
   0.00000   0.00000   0.00000   0.00000   0.00000   0.00000   0.00000   0.00000   0.00000
Generated with MDTraj, t= 19.0
 73
    1UNL     C1    1  -0.073  -0.305  -0.262
    1UNL     O1    2  -0.049  -0.195  -0.179
    1UNL     C2    3   0.037  -0.110  -0.244
    1UNL     O2    4   0.085  -0.125  -0.356
    1UNL     C3    5   0.086  -0.000  -0.163
    1UNL     C4    6   0.188   0.070  -0.205
    1UNL     O3    7   0.237   0.174  -0.135
    1UNL     C5    8   0.208   0.166   0.010
    1UNL     O4    9   0.290   0.070   0.079
    1UNL     C6   10   0.425   0.095   0.078
    1UNL     O5   11   0.499   0.020   0.177
    1UNL     C7   12   0.498  -0.124   0.147
    1UNL     C8   13   0.360  -0.188   0.146
    1UNL     O6   14   0.363  -0.324   0.125
    1UNL     C9   15   0.570  -0.153   0.013
    1UNL     O7   16   0.578  -0.292  -0.009
    1UNL    C10   17   0.519  -0.069  -0.109
    1UNL     O8   18   0.600  -0.088  -0.222
    1UNL    C11   19   0.506   0.079  -0.062
    1UNL     O9   20   0.643   0.116  -0.033
    1UNL    C12   21   0.061   0.150   0.051
    1UNL    C13   22  -0.012   0.283   0.041
    1UNL    O10   23   0.072   0.399   0.055
    1UNL    C14   24  -0.132   0.298   0.139
    1UNL     N1   25  -0.248   0.228   0.087
    1UNL    C15   26  -0.384   0.266   0.137
    1UNL    C16   27  -0.496   0.217   0.043
    1UNL    C17   28  -0.473   0.063   0.041
    1UNL    C18   29  -0.352   0.005   0.055
    1UNL     N2   30  -0.367  -0.126   0.078
    1UNL    C19   31  -0.505  -0.158   0.069
    1UNL    C20   32  -0.577  -0.278   0.081
    1UNL    C21   33  -0.716  -0.273   0.069
    1UNL    C22   34  -0.781  -0.156   0.042
    1UNL    C23   35  -0.711  -0.036   0.032
    1UNL    C24   36  -0.573  -0.037   0.047
    1UNL    C25   37  -0.226   0.081   0.060
    1UNL    C26   38  -0.149   0.053  -0.068
    1UNL    C27   39   0.003   0.033  -0.036
    1UNL     H1   40   0.010  -0.316  -0.337
    1UNL     H2   41  -0.170  -0.288  -0.314
    1UNL     H3   42  -0.068  -0.395  -0.190
    1UNL     H4   43   0.238   0.043  -0.296
    1UNL     H5   44   0.235   0.271   0.047
    1UNL     H6   45   0.441   0.199   0.114
    1UNL     H7   46   0.559  -0.179   0.218
    1UNL     H8   47   0.297  -0.134   0.075
    1UNL     H9   48   0.314  -0.163   0.246
    1UNL    H10   49   0.427  -0.345   0.054
    1UNL    H11   50   0.675  -0.129   0.037
    1UNL    H12   51   0.628  -0.307  -0.087
    1UNL    H13   52   0.424  -0.110  -0.130
    1UNL    H14   53   0.683  -0.038  -0.200
    1UNL    H15   54   0.448   0.142  -0.135
    1UNL    H16   55   0.648   0.180   0.040
    1UNL    H17   56   0.062   0.122   0.158
    1UNL    H18   57  -0.043   0.295  -0.066
    1UNL    H19   58   0.012   0.467   0.105
    1UNL    H20   59  -0.104   0.266   0.237
    1UNL    H21   60  -0.163   0.403   0.141
    1UNL    H22   61  -0.373   0.379   0.138
    1UNL    H23   62  -0.395   0.244   0.242
    1UNL    H24   63  -0.483   0.252  -0.064
    1UNL    H25   64  -0.599   0.235   0.083
    1UNL    H26   65  -0.296  -0.196   0.083
    1UNL    H27   66  -0.519  -0.367   0.098
    1UNL    H28   67  -0.776  -0.355   0.079
    1UNL    H29   68  -0.885  -0.156   0.048
    1UNL    H30   69  -0.771   0.060   0.022
    1UNL    H31   70  -0.173   0.048   0.150
    1UNL    H32   71  -0.168   0.139  -0.138
    1UNL    H33   72  -0.179  -0.045  -0.114
    1UNL    H34   73  -0.011  -0.049   0.030
   0.00000   0.00000   0.00000   0.00000   0.00000   0.00000   0.00000   0.00000   0.00000
Generated with MDTraj, t= 20.0
 73
    1UNL     C1    1  -0.052  -0.322  -0.266
    1UNL     O1    2  -0.037  -0.213  -0.176
    1UNL     C2    3   0.045  -0.127  -0.243
    1UNL     O2    4   0.091  -0.143  -0.358
    1UNL     C3    5   0.077  -0.011  -0.160
    1UNL     C4    6   0.168   0.069  -0.216
    1UNL     O3    7   0.233   0.175  -0.153
    1UNL     C5    8   0.222   0.169  -0.011
    1UNL     O4    9   0.293   0.063   0.057
    1UNL     C6   10   0.427   0.095   0.090
    1UNL     O5   11   0.489   0.018   0.188
    1UNL     C7   12   0.498  -0.128   0.154
    1UNL     C8   13   0.348  -0.185   0.149
    1UNL     O6   14   0.351  -0.325   0.140
    1UNL     C9   15   0.579  -0.148   0.017
    1UNL     O7   16   0.573  -0.286  -0.020
    1UNL    C10   17   0.514  -0.059  -0.089
    1UNL     O8   18   0.591  -0.080  -0.215
    1UNL    C11   19   0.502   0.088  -0.041
    1UNL     O9   20   0.619   0.172  -0.030
    1UNL    C12   21   0.073   0.146   0.036
    1UNL    C13   22   0.011   0.289   0.033
    1UNL    O10   23   0.105   0.389   0.088
    1UNL    C14   24  -0.117   0.298   0.123
    1UNL     N1   25  -0.237   0.228   0.065
    1UNL    C15   26  -0.362   0.276   0.135
    1UNL    C16   27  -0.492   0.220   0.084
    1UNL    C17   28  -0.477   0.068   0.064
    1UNL    C18   29  -0.357   0.004   0.043
    1UNL     N2   30  -0.388  -0.131   0.035
    1UNL    C19   31  -0.522  -0.155   0.047
    1UNL    C20   32  -0.589  -0.277   0.047
    1UNL    C21   33  -0.727  -0.273   0.060
    1UNL    C22   34  -0.793  -0.153   0.076
    1UNL    C23   35  -0.722  -0.036   0.063
    1UNL    C24   36  -0.586  -0.035   0.061
    1UNL    C25   37  -0.228   0.077   0.052
    1UNL    C26   38  -0.140   0.046  -0.062
    1UNL    C27   39   0.011   0.026  -0.028
    1UNL     H1   40   0.027  -0.392  -0.249
    1UNL     H2   41  -0.044  -0.286  -0.371
    1UNL     H3   42  -0.146  -0.375  -0.243
    1UNL     H4   43   0.188   0.062  -0.323
    1UNL     H5   44   0.255   0.274   0.023
    1UNL     H6   45   0.435   0.196   0.132
    1UNL     H7   46   0.548  -0.172   0.236
    1UNL     H8   47   0.297  -0.134   0.069
    1UNL     H9   48   0.293  -0.156   0.243
    1UNL    H10   49   0.393  -0.349   0.053
    1UNL    H11   50   0.681  -0.111   0.022
    1UNL    H12   51   0.602  -0.303  -0.115
    1UNL    H13   52   0.421  -0.092  -0.124
    1UNL    H14   53   0.585  -0.009  -0.287
    1UNL    H15   54   0.426   0.128  -0.111
    1UNL    H16   55   0.700   0.130   0.007
    1UNL    H17   56   0.082   0.119   0.144
    1UNL    H18   57  -0.002   0.330  -0.073
    1UNL    H19   58   0.130   0.457   0.019
    1UNL    H20   59  -0.096   0.265   0.224
    1UNL    H21   60  -0.133   0.405   0.122
    1UNL    H22   61  -0.363   0.389   0.141
    1UNL    H23   62  -0.348   0.249   0.237
    1UNL    H24   63  -0.512   0.258  -0.020
    1UNL    H25   64  -0.583   0.225   0.150
    1UNL    H26   65  -0.321  -0.206   0.030
    1UNL    H27   66  -0.544  -0.369   0.020
    1UNL    H28   67  -0.773  -0.379   0.055
    1UNL    H29   68  -0.905  -0.145   0.084
    1UNL    H30   69  -0.777   0.056   0.068
    1UNL    H31   70  -0.175   0.038   0.142
    1UNL    H32   71  -0.138   0.127  -0.140
    1UNL    H33   72  -0.179  -0.056  -0.091
    1UNL    H34   73   0.019  -0.054   0.037
   0.00000   0.00000   0.00000   0.00000   0.00000   0.00000   0.00000   0.00000   0.00000
Generated with MDTraj, t= 21.0
 73
    1UNL     C1    1  -0.053  -0.324  -0.246
    1UNL     O1    2  -0.047  -0.204  -0.184
    1UNL     C2    3   0.053  -0.133  -0.243
    1UNL     O2    4   0.116  -0.170  -0.343
    1UNL     C3    5   0.087  -0.020  -0.158
    1UNL     C4    6   0.192   0.061  -0.196
    1UNL     O3    7   0.243   0.159  -0.119
    1UNL     C5    8   0.210   0.155   0.017
    1UNL     O4    9   0.291   0.069   0.094
    1UNL     C6   10   0.435   0.098   0.094
    1UNL     O5   11   0.508   0.010   0.184
    1UNL     C7   12   0.504  -0.128   0.145
    1UNL     C8   13   0.364  -0.176   0.161
    1UNL     O6   14   0.359  -0.319   0.135
    1UNL     C9   15   0.573  -0.143   0.011
    1UNL     O7   16   0.572  -0.274  -0.048
    1UNL    C10   17   0.513  -0.053  -0.098
    1UNL     O8   18   0.598  -0.054  -0.211
    1UNL    C11   19   0.508   0.093  -0.051
    1UNL     O9   20   0.646   0.141  -0.041
    1UNL    C12   21   0.065   0.141   0.044
    1UNL    C13   22  -0.013   0.274   0.023
    1UNL    O10   23   0.070   0.389   0.030
    1UNL    C14   24  -0.131   0.294   0.116
    1UNL     N1   25  -0.255   0.235   0.066
    1UNL    C15   26  -0.371   0.283   0.145
    1UNL    C16   27  -0.500   0.219   0.107
    1UNL    C17   28  -0.485   0.067   0.085
    1UNL    C18   29  -0.367   0.006   0.044
    1UNL     N2   30  -0.381  -0.129   0.016
    1UNL    C19   31  -0.520  -0.155   0.025
    1UNL    C20   32  -0.604  -0.261  -0.001
    1UNL    C21   33  -0.735  -0.265   0.040
    1UNL    C22   34  -0.792  -0.148   0.092
    1UNL    C23   35  -0.721  -0.029   0.111
    1UNL    C24   36  -0.583  -0.041   0.079
    1UNL    C25   37  -0.235   0.085   0.046
    1UNL    C26   38  -0.143   0.057  -0.077
    1UNL    C27   39   0.005   0.025  -0.045
    1UNL     H1   40   0.034  -0.378  -0.227
    1UNL     H2   41  -0.066  -0.317  -0.356
    1UNL     H3   42  -0.132  -0.375  -0.196
    1UNL     H4   43   0.245   0.057  -0.293
    1UNL     H5   44   0.242   0.257   0.056
    1UNL     H6   45   0.457   0.195   0.135
    1UNL     H7   46   0.555  -0.180   0.221
    1UNL     H8   47   0.299  -0.125   0.094
    1UNL     H9   48   0.328  -0.148   0.265
    1UNL    H10   49   0.398  -0.332   0.047
    1UNL    H11   50   0.677  -0.122   0.031
    1UNL    H12   51   0.612  -0.276  -0.141
    1UNL    H13   52   0.419  -0.092  -0.121
    1UNL    H14   53   0.688  -0.032  -0.188
    1UNL    H15   54   0.450   0.153  -0.122
    1UNL    H16   55   0.712   0.093   0.017
    1UNL    H17   56   0.057   0.112   0.152
    1UNL    H18   57  -0.047   0.280  -0.085
    1UNL    H19   58   0.119   0.391  -0.052
    1UNL    H20   59  -0.104   0.249   0.210
    1UNL    H21   60  -0.151   0.403   0.116
    1UNL    H22   61  -0.381   0.396   0.143
    1UNL    H23   62  -0.342   0.260   0.245
    1UNL    H24   63  -0.544   0.255   0.009
    1UNL    H25   64  -0.570   0.234   0.193
    1UNL    H26   65  -0.315  -0.185  -0.039
    1UNL    H27   66  -0.558  -0.349  -0.055
    1UNL    H28   67  -0.795  -0.342   0.006
    1UNL    H29   68  -0.899  -0.145   0.109
    1UNL    H30   69  -0.757   0.067   0.136
    1UNL    H31   70  -0.172   0.058   0.134
    1UNL    H32   71  -0.161   0.158  -0.122
    1UNL    H33   72  -0.177  -0.027  -0.142
    1UNL    H34   73   0.011  -0.066   0.005
   0.00000   0.00000   0.00000   0.00000   0.00000   0.00000   0.00000   0.00000   0.00000
Generated with MDTraj, t= 22.0
 73
    1UNL     C1    1  -0.071  -0.305  -0.258
    1UNL     O1    2  -0.051  -0.201  -0.171
    1UNL     C2    3   0.065  -0.138  -0.205
    1UNL     O2    4   0.141  -0.181  -0.293
    1UNL     C3    5   0.099  -0.022  -0.125
    1UNL     C4    6   0.197   0.057  -0.184
    1UNL     O3    7   0.246   0.167  -0.127
    1UNL     C5    8   0.223   0.165   0.017
    1UNL     O4    9   0.291   0.058   0.077
    1UNL     C6   10   0.424   0.095   0.100
    1UNL     O5   11   0.493   0.010   0.188
    1UNL     C7   12   0.504  -0.128   0.146
    1UNL     C8   13   0.369  -0.198   0.152
    1UNL     O6   14   0.375  -0.337   0.123
    1UNL     C9   15   0.573  -0.144   0.005
    1UNL     O7   16   0.565  -0.276  -0.057
    1UNL    C10   17   0.508  -0.043  -0.096
    1UNL     O8   18   0.568  -0.046  -0.224
    1UNL    C11   19   0.502   0.097  -0.035
    1UNL     O9   20   0.629   0.144  -0.031
    1UNL    C12   21   0.075   0.158   0.042
    1UNL    C13   22  -0.007   0.285  -0.012
    1UNL    O10   23   0.073   0.405  -0.017
    1UNL    C14   24  -0.126   0.323   0.063
    1UNL     N1   25  -0.249   0.231   0.071
    1UNL    C15   26  -0.350   0.258   0.182
    1UNL    C16   27  -0.493   0.207   0.151
    1UNL    C17   28  -0.488   0.069   0.083
    1UNL    C18   29  -0.366   0.011   0.046
    1UNL     N2   30  -0.393  -0.115  -0.006
    1UNL    C19   31  -0.529  -0.143   0.006
    1UNL    C20   32  -0.601  -0.264  -0.009
    1UNL    C21   33  -0.732  -0.275   0.027
    1UNL    C22   34  -0.800  -0.160   0.081
    1UNL    C23   35  -0.736  -0.039   0.093
    1UNL    C24   36  -0.594  -0.027   0.061
    1UNL    C25   37  -0.224   0.082   0.063
    1UNL    C26   38  -0.130   0.039  -0.050
    1UNL    C27   39   0.016   0.023  -0.008
    1UNL     H1   40   0.016  -0.358  -0.275
    1UNL     H2   41  -0.105  -0.268  -0.358
    1UNL     H3   42  -0.139  -0.372  -0.215
    1UNL     H4   43   0.236   0.036  -0.284
    1UNL     H5   44   0.266   0.260   0.056
    1UNL     H6   45   0.431   0.197   0.134
    1UNL     H7   46   0.555  -0.175   0.223
    1UNL     H8   47   0.306  -0.162   0.077
    1UNL     H9   48   0.311  -0.186   0.247
    1UNL    H10   49   0.442  -0.355   0.053
    1UNL    H11   50   0.678  -0.127   0.008
    1UNL    H12   51   0.624  -0.274  -0.133
    1UNL    H13   52   0.407  -0.075  -0.100
    1UNL    H14   53   0.509  -0.027  -0.296
    1UNL    H15   54   0.444   0.164  -0.097
    1UNL    H16   55   0.694   0.072  -0.011
    1UNL    H17   56   0.052   0.163   0.152
    1UNL    H18   57  -0.045   0.280  -0.119
    1UNL    H19   58   0.140   0.388  -0.079
    1UNL    H20   59  -0.092   0.339   0.163
    1UNL    H21   60  -0.171   0.408   0.007
    1UNL    H22   61  -0.346   0.369   0.200
    1UNL    H23   62  -0.319   0.214   0.273
    1UNL    H24   63  -0.532   0.280   0.075
    1UNL    H25   64  -0.559   0.204   0.242
    1UNL    H26   65  -0.325  -0.189  -0.030
    1UNL    H27   66  -0.550  -0.345  -0.043
    1UNL    H28   67  -0.785  -0.370   0.014
    1UNL    H29   68  -0.899  -0.170   0.112
    1UNL    H30   69  -0.772   0.057   0.139
    1UNL    H31   70  -0.175   0.040   0.155
    1UNL    H32   71  -0.122   0.107  -0.139
    1UNL    H33   72  -0.179  -0.056  -0.082
    1UNL    H34   73   0.020  -0.044   0.070
   0.00000   0.00000   0.00000   0.00000   0.00000   0.00000   0.00000   0.00000   0.00000
Generated with MDTraj, t= 23.0
 73
    1UNL     C1    1  -0.075  -0.312  -0.244
    1UNL     O1    2  -0.042  -0.207  -0.155
    1UNL     C2    3   0.071  -0.141  -0.192
    1UNL     O2    4   0.140  -0.189  -0.281
    1UNL     C3    5   0.105  -0.016  -0.124
    1UNL     C4    6   0.195   0.068  -0.176
    1UNL     O3    7   0.243   0.177  -0.113
    1UNL     C5    8   0.215   0.175   0.031
    1UNL     O4    9   0.276   0.075   0.106
    1UNL     C6   10   0.414   0.092   0.103
    1UNL     O5   11   0.490  -0.001   0.186
    1UNL     C7   12   0.501  -0.138   0.136
    1UNL     C8   13   0.362  -0.202   0.129
    1UNL     O6   14   0.367  -0.335   0.112
    1UNL     C9   15   0.564  -0.148  -0.002
    1UNL     O7   16   0.566  -0.281  -0.056
    1UNL    C10   17   0.484  -0.047  -0.104
    1UNL     O8   18   0.552  -0.034  -0.228
    1UNL    C11   19   0.477   0.097  -0.036
    1UNL     O9   20   0.597   0.158  -0.037
    1UNL    C12   21   0.063   0.159   0.047
    1UNL    C13   22  -0.019   0.282  -0.022
    1UNL    O10   23   0.062   0.397  -0.065
    1UNL    C14   24  -0.131   0.328   0.063
    1UNL     N1   25  -0.242   0.225   0.071
    1UNL    C15   26  -0.340   0.262   0.176
    1UNL    C16   27  -0.474   0.191   0.155
    1UNL    C17   28  -0.459   0.056   0.108
    1UNL    C18   29  -0.341  -0.002   0.062
    1UNL     N2   30  -0.378  -0.130   0.013
    1UNL    C19   31  -0.511  -0.151   0.015
    1UNL    C20   32  -0.593  -0.260  -0.022
    1UNL    C21   33  -0.732  -0.244  -0.011
    1UNL    C22   34  -0.791  -0.123   0.048
    1UNL    C23   35  -0.708  -0.031   0.092
    1UNL    C24   36  -0.565  -0.036   0.072
    1UNL    C25   37  -0.213   0.075   0.065
    1UNL    C26   38  -0.127   0.031  -0.052
    1UNL    C27   39   0.018   0.023  -0.008
    1UNL     H1   40  -0.033  -0.403  -0.217
    1UNL     H2   41  -0.037  -0.288  -0.349
    1UNL     H3   42  -0.181  -0.327  -0.249
    1UNL     H4   43   0.229   0.052  -0.276
    1UNL     H5   44   0.259   0.266   0.068
    1UNL     H6   45   0.430   0.194   0.138
    1UNL     H7   46   0.551  -0.188   0.214
    1UNL     H8   47   0.299  -0.165   0.055
    1UNL     H9   48   0.312  -0.185   0.225
    1UNL    H10   49   0.422  -0.361   0.036
    1UNL    H11   50   0.667  -0.116  -0.003
    1UNL    H12   51   0.585  -0.287  -0.153
    1UNL    H13   52   0.385  -0.083  -0.127
    1UNL    H14   53   0.649  -0.046  -0.217
    1UNL    H15   54   0.414   0.156  -0.102
    1UNL    H16   55   0.653   0.116   0.032
    1UNL    H17   56   0.047   0.157   0.160
    1UNL    H18   57  -0.057   0.254  -0.123
    1UNL    H19   58   0.151   0.360  -0.103
    1UNL    H20   59  -0.096   0.336   0.164
    1UNL    H21   60  -0.177   0.414   0.010
    1UNL    H22   61  -0.352   0.374   0.189
    1UNL    H23   62  -0.288   0.233   0.265
    1UNL    H24   63  -0.532   0.253   0.083
    1UNL    H25   64  -0.524   0.198   0.255
    1UNL    H26   65  -0.313  -0.203  -0.024
    1UNL    H27   66  -0.549  -0.359  -0.051
    1UNL    H28   67  -0.799  -0.331  -0.021
    1UNL    H29   68  -0.905  -0.114   0.074
    1UNL    H30   69  -0.744   0.043   0.155
    1UNL    H31   70  -0.162   0.053   0.163
    1UNL    H32   71  -0.165   0.088  -0.143
    1UNL    H33   72  -0.147  -0.074  -0.080
    1UNL    H34   73   0.013  -0.037   0.077
   0.00000   0.00000   0.00000   0.00000   0.00000   0.00000   0.00000   0.00000   0.00000
Generated with MDTraj, t= 24.0
 73
    1UNL     C1    1  -0.019  -0.350  -0.210
    1UNL     O1    2  -0.034  -0.222  -0.164
    1UNL     C2    3   0.061  -0.141  -0.210
    1UNL     O2    4   0.138  -0.181  -0.297
    1UNL     C3    5   0.086  -0.008  -0.145
    1UNL     C4    6   0.182   0.072  -0.194
    1UNL     O3    7   0.248   0.172  -0.126
    1UNL     C5    8   0.221   0.170   0.010
    1UNL     O4    9   0.293   0.078   0.091
    1UNL     C6   10   0.438   0.097   0.102
    1UNL     O5   11   0.500  -0.007   0.183
    1UNL     C7   12   0.481  -0.134   0.123
    1UNL     C8   13   0.340  -0.191   0.142
    1UNL     O6   14   0.327  -0.320   0.089
    1UNL     C9   15   0.553  -0.142  -0.007
    1UNL     O7   16   0.545  -0.266  -0.066
    1UNL    C10   17   0.502  -0.038  -0.113
    1UNL     O8   18   0.578  -0.053  -0.227
    1UNL    C11   19   0.516   0.105  -0.036
    1UNL     O9   20   0.646   0.150  -0.012
    1UNL    C12   21   0.066   0.161   0.045
    1UNL    C13   22  -0.019   0.273  -0.018
    1UNL    O10   23   0.070   0.386  -0.038
    1UNL    C14   24  -0.151   0.317   0.053
    1UNL     N1   25  -0.254   0.220   0.078
    1UNL    C15   26  -0.355   0.283   0.173
    1UNL    C16   27  -0.489   0.203   0.159
    1UNL    C17   28  -0.482   0.059   0.129
    1UNL    C18   29  -0.358   0.001   0.102
    1UNL     N2   30  -0.378  -0.127   0.053
    1UNL    C19   31  -0.518  -0.147   0.034
    1UNL    C20   32  -0.583  -0.253  -0.029
    1UNL    C21   33  -0.721  -0.244  -0.038
    1UNL    C22   34  -0.790  -0.131   0.012
    1UNL    C23   35  -0.723  -0.033   0.089
    1UNL    C24   36  -0.582  -0.030   0.087
    1UNL    C25   37  -0.221   0.070   0.096
    1UNL    C26   38  -0.138   0.015  -0.025
    1UNL    C27   39   0.017   0.027  -0.016
    1UNL     H1   40   0.077  -0.393  -0.185
    1UNL     H2   41  -0.029  -0.351  -0.327
    1UNL     H3   42  -0.100  -0.413  -0.172
    1UNL     H4   43   0.216   0.056  -0.295
    1UNL     H5   44   0.253   0.266   0.044
    1UNL     H6   45   0.454   0.189   0.159
    1UNL     H7   46   0.540  -0.193   0.190
    1UNL     H8   47   0.285  -0.124   0.086
    1UNL     H9   48   0.304  -0.188   0.244
    1UNL    H10   49   0.403  -0.334   0.028
    1UNL    H11   50   0.661  -0.126   0.005
    1UNL    H12   51   0.558  -0.271  -0.166
    1UNL    H13   52   0.398  -0.064  -0.132
    1UNL    H14   53   0.540   0.010  -0.298
    1UNL    H15   54   0.472   0.177  -0.105
    1UNL    H16   55   0.709   0.089   0.030
    1UNL    H17   56   0.059   0.163   0.158
    1UNL    H18   57  -0.036   0.237  -0.121
    1UNL    H19   58   0.138   0.373  -0.101
    1UNL    H20   59  -0.112   0.349   0.148
    1UNL    H21   60  -0.202   0.386  -0.018
    1UNL    H22   61  -0.360   0.392   0.147
    1UNL    H23   62  -0.316   0.289   0.273
    1UNL    H24   63  -0.553   0.254   0.084
    1UNL    H25   64  -0.544   0.216   0.257
    1UNL    H26   65  -0.297  -0.183   0.020
    1UNL    H27   66  -0.529  -0.338  -0.070
    1UNL    H28   67  -0.784  -0.312  -0.086
    1UNL    H29   68  -0.890  -0.124   0.002
    1UNL    H30   69  -0.770   0.060   0.128
    1UNL    H31   70  -0.163   0.045   0.190
    1UNL    H32   71  -0.152   0.084  -0.115
    1UNL    H33   72  -0.172  -0.079  -0.069
    1UNL    H34   73   0.054  -0.037   0.055
   0.00000   0.00000   0.00000   0.00000   0.00000   0.00000   0.00000   0.00000   0.00000
Generated with MDTraj, t= 25.0
 73
    1UNL     C1    1  -0.001  -0.356  -0.196
    1UNL     O1    2   0.006  -0.242  -0.115
    1UNL     C2    3   0.068  -0.146  -0.193
    1UNL     O2    4   0.101  -0.161  -0.311
    1UNL     C3    5   0.096  -0.016  -0.130
    1UNL     C4    6   0.194   0.066  -0.190
    1UNL     O3    7   0.240   0.185  -0.130
    1UNL     C5    8   0.223   0.182   0.012
    1UNL     O4    9   0.288   0.076   0.076
    1UNL     C6   10   0.424   0.095   0.088
    1UNL     O5   11   0.480   0.002   0.175
    1UNL     C7   12   0.458  -0.132   0.121
    1UNL     C8   13   0.312  -0.184   0.124
    1UNL     O6   14   0.301  -0.320   0.085
    1UNL     C9   15   0.531  -0.142  -0.016
    1UNL     O7   16   0.538  -0.273  -0.069
    1UNL    C10   17   0.501  -0.032  -0.132
    1UNL     O8   18   0.607  -0.040  -0.227
    1UNL    C11   19   0.502   0.099  -0.045
    1UNL     O9   20   0.627   0.140  -0.010
    1UNL    C12   21   0.075   0.157   0.047
    1UNL    C13   22  -0.016   0.275   0.001
    1UNL    O10   23   0.057   0.395  -0.030
    1UNL    C14   24  -0.126   0.311   0.104
    1UNL     N1   25  -0.239   0.222   0.084
    1UNL    C15   26  -0.351   0.266   0.175
    1UNL    C16   27  -0.485   0.197   0.134
    1UNL    C17   28  -0.465   0.063   0.093
    1UNL    C18   29  -0.347  -0.000   0.079
    1UNL     N2   30  -0.370  -0.134   0.047
    1UNL    C19   31  -0.511  -0.157   0.051
    1UNL    C20   32  -0.588  -0.271   0.014
    1UNL    C21   33  -0.724  -0.245  -0.017
    1UNL    C22   34  -0.784  -0.122   0.011
    1UNL    C23   35  -0.714  -0.010   0.048
    1UNL    C24   36  -0.574  -0.030   0.068
    1UNL    C25   37  -0.215   0.070   0.080
    1UNL    C26   38  -0.129   0.026  -0.035
    1UNL    C27   39   0.020   0.021  -0.004
    1UNL     H1   40   0.099  -0.382  -0.235
    1UNL     H2   41  -0.068  -0.330  -0.289
    1UNL     H3   42  -0.049  -0.446  -0.152
    1UNL     H4   43   0.234   0.033  -0.287
    1UNL     H5   44   0.237   0.277   0.061
    1UNL     H6   45   0.442   0.186   0.150
    1UNL     H7   46   0.515  -0.197   0.187
    1UNL     H8   47   0.254  -0.127   0.061
    1UNL     H9   48   0.276  -0.177   0.224
    1UNL    H10   49   0.364  -0.327   0.010
    1UNL    H11   50   0.641  -0.120  -0.010
    1UNL    H12   51   0.568  -0.277  -0.160
    1UNL    H13   52   0.397  -0.039  -0.169
    1UNL    H14   53   0.644   0.049  -0.234
    1UNL    H15   54   0.459   0.178  -0.102
    1UNL    H16   55   0.668   0.081   0.057
    1UNL    H17   56   0.056   0.169   0.157
    1UNL    H18   57  -0.066   0.240  -0.088
    1UNL    H19   58   0.132   0.382  -0.101
    1UNL    H20   59  -0.093   0.290   0.204
    1UNL    H21   60  -0.152   0.413   0.068
    1UNL    H22   61  -0.355   0.377   0.163
    1UNL    H23   62  -0.315   0.259   0.276
    1UNL    H24   63  -0.520   0.255   0.046
    1UNL    H25   64  -0.563   0.209   0.215
    1UNL    H26   65  -0.296  -0.202   0.026
    1UNL    H27   66  -0.546  -0.364  -0.012
    1UNL    H28   67  -0.778  -0.329  -0.068
    1UNL    H29   68  -0.883  -0.095  -0.027
    1UNL    H30   69  -0.758   0.084   0.041
    1UNL    H31   70  -0.157   0.056   0.176
    1UNL    H32   71  -0.166   0.087  -0.124
    1UNL    H33   72  -0.150  -0.078  -0.062
    1UNL    H34   73   0.043  -0.055   0.062
   0.00000   0.00000   0.00000   0.00000   0.00000   0.00000   0.00000   0.00000   0.00000
Generated with MDTraj, t= 26.0
 73
    1UNL     C1    1   0.001  -0.340  -0.162
    1UNL     O1    2   0.015  -0.219  -0.095
    1UNL     C2    3   0.065  -0.135  -0.190
    1UNL     O2    4   0.090  -0.164  -0.307
    1UNL     C3    5   0.089  -0.004  -0.139
    1UNL     C4    6   0.182   0.085  -0.191
    1UNL     O3    7   0.244   0.189  -0.125
    1UNL     C5    8   0.226   0.181   0.020
    1UNL     O4    9   0.293   0.069   0.088
    1UNL     C6   10   0.430   0.081   0.101
    1UNL     O5   11   0.495  -0.022   0.177
    1UNL     C7   12   0.473  -0.157   0.119
    1UNL     C8   13   0.324  -0.188   0.105
    1UNL     O6   14   0.313  -0.329   0.074
    1UNL     C9   15   0.545  -0.162  -0.012
    1UNL     O7   16   0.517  -0.284  -0.079
    1UNL    C10   17   0.504  -0.045  -0.117
    1UNL     O8   18   0.586  -0.039  -0.231
    1UNL    C11   19   0.494   0.093  -0.046
    1UNL     O9   20   0.618   0.163  -0.035
    1UNL    C12   21   0.080   0.172   0.054
    1UNL    C13   22  -0.005   0.294   0.002
    1UNL    O10   23   0.072   0.418  -0.004
    1UNL    C14   24  -0.130   0.318   0.089
    1UNL     N1   25  -0.236   0.215   0.120
    1UNL    C15   26  -0.367   0.257   0.167
    1UNL    C16   27  -0.481   0.214   0.077
    1UNL    C17   28  -0.474   0.072   0.057
    1UNL    C18   29  -0.354   0.004   0.062
    1UNL     N2   30  -0.378  -0.134   0.053
    1UNL    C19   31  -0.511  -0.157   0.030
    1UNL    C20   32  -0.588  -0.274   0.010
    1UNL    C21   33  -0.723  -0.266   0.021
    1UNL    C22   34  -0.786  -0.147   0.030
    1UNL    C23   35  -0.711  -0.032   0.030
    1UNL    C24   36  -0.574  -0.030   0.040
    1UNL    C25   37  -0.221   0.070   0.090
    1UNL    C26   38  -0.133   0.040  -0.033
    1UNL    C27   39   0.021   0.040  -0.011
    1UNL     H1   40   0.096  -0.369  -0.213
    1UNL     H2   41  -0.083  -0.333  -0.237
    1UNL     H3   42  -0.030  -0.420  -0.092
    1UNL     H4   43   0.225   0.060  -0.288
    1UNL     H5   44   0.286   0.267   0.059
    1UNL     H6   45   0.447   0.167   0.169
    1UNL     H7   46   0.520  -0.234   0.185
    1UNL     H8   47   0.281  -0.124   0.034
    1UNL     H9   48   0.275  -0.174   0.198
    1UNL    H10   49   0.387  -0.354   0.015
    1UNL    H11   50   0.656  -0.152  -0.005
    1UNL    H12   51   0.555  -0.296  -0.167
    1UNL    H13   52   0.402  -0.079  -0.152
    1UNL    H14   53   0.673   0.000  -0.213
    1UNL    H15   54   0.436   0.150  -0.114
    1UNL    H16   55   0.675   0.108   0.026
    1UNL    H17   56   0.065   0.175   0.165
    1UNL    H18   57  -0.035   0.267  -0.097
    1UNL    H19   58   0.138   0.412  -0.074
    1UNL    H20   59  -0.081   0.337   0.184
    1UNL    H21   60  -0.192   0.396   0.040
    1UNL    H22   61  -0.359   0.366   0.186
    1UNL    H23   62  -0.373   0.214   0.266
    1UNL    H24   63  -0.483   0.271  -0.017
    1UNL    H25   64  -0.574   0.240   0.137
    1UNL    H26   65  -0.313  -0.212   0.047
    1UNL    H27   66  -0.535  -0.373   0.020
    1UNL    H28   67  -0.778  -0.354   0.033
    1UNL    H29   68  -0.902  -0.140   0.034
    1UNL    H30   69  -0.762   0.066   0.027
    1UNL    H31   70  -0.180   0.020   0.181
    1UNL    H32   71  -0.148   0.109  -0.120
    1UNL    H33   72  -0.171  -0.060  -0.061
    1UNL    H34   73   0.051  -0.031   0.059
   0.00000   0.00000   0.00000   0.00000   0.00000   0.00000   0.00000   0.00000   0.00000
Generated with MDTraj, t= 27.0
 73
    1UNL     C1    1   0.002  -0.335  -0.152
    1UNL     O1    2  -0.020  -0.202  -0.114
    1UNL     C2    3   0.074  -0.131  -0.184
    1UNL     O2    4   0.129  -0.163  -0.291
    1UNL     C3    5   0.101  -0.002  -0.118
    1UNL     C4    6   0.181   0.095  -0.167
    1UNL     O3    7   0.231   0.201  -0.094
    1UNL     C5    8   0.214   0.179   0.042
    1UNL     O4    9   0.294   0.064   0.090
    1UNL     C6   10   0.431   0.077   0.097
    1UNL     O5   11   0.496  -0.023   0.171
    1UNL     C7   12   0.488  -0.155   0.108
    1UNL     C8   13   0.341  -0.197   0.111
    1UNL     O6   14   0.333  -0.331   0.061
    1UNL     C9   15   0.552  -0.160  -0.031
    1UNL     O7   16   0.537  -0.288  -0.096
    1UNL    C10   17   0.493  -0.053  -0.117
    1UNL     O8   18   0.554  -0.055  -0.247
    1UNL    C11   19   0.500   0.085  -0.047
    1UNL     O9   20   0.639   0.120  -0.038
    1UNL    C12   21   0.067   0.172   0.076
    1UNL    C13   22  -0.008   0.300   0.018
    1UNL    O10   23   0.075   0.416   0.013
    1UNL    C14   24  -0.130   0.319   0.100
    1UNL     N1   25  -0.259   0.241   0.052
    1UNL    C15   26  -0.383   0.274   0.128
    1UNL    C16   27  -0.503   0.216   0.058
    1UNL    C17   28  -0.485   0.069   0.057
    1UNL    C18   29  -0.361   0.009   0.060
    1UNL     N2   30  -0.369  -0.131   0.064
    1UNL    C19   31  -0.504  -0.157   0.048
    1UNL    C20   32  -0.577  -0.277   0.027
    1UNL    C21   33  -0.711  -0.276   0.030
    1UNL    C22   34  -0.778  -0.156   0.029
    1UNL    C23   35  -0.713  -0.036   0.027
    1UNL    C24   36  -0.575  -0.037   0.044
    1UNL    C25   37  -0.234   0.090   0.062
    1UNL    C26   38  -0.130   0.049  -0.038
    1UNL    C27   39   0.016   0.036   0.011
    1UNL     H1   40   0.110  -0.355  -0.141
    1UNL     H2   41  -0.031  -0.353  -0.254
    1UNL     H3   42  -0.059  -0.401  -0.091
    1UNL     H4   43   0.217   0.092  -0.268
    1UNL     H5   44   0.280   0.264   0.089
    1UNL     H6   45   0.449   0.171   0.152
    1UNL     H7   46   0.551  -0.219   0.180
    1UNL     H8   47   0.285  -0.134   0.046
    1UNL     H9   48   0.293  -0.180   0.205
    1UNL    H10   49   0.394  -0.345  -0.016
    1UNL    H11   50   0.660  -0.131  -0.027
    1UNL    H12   51   0.577  -0.298  -0.189
    1UNL    H13   52   0.384  -0.084  -0.124
    1UNL    H14   53   0.564   0.039  -0.281
    1UNL    H15   54   0.447   0.151  -0.109
    1UNL    H16   55   0.673   0.068   0.040
    1UNL    H17   56   0.052   0.177   0.187
    1UNL    H18   57  -0.029   0.286  -0.088
    1UNL    H19   58   0.155   0.389  -0.034
    1UNL    H20   59  -0.123   0.293   0.203
    1UNL    H21   60  -0.157   0.422   0.083
    1UNL    H22   61  -0.388   0.381   0.153
    1UNL    H23   62  -0.366   0.234   0.228
    1UNL    H24   63  -0.511   0.255  -0.045
    1UNL    H25   64  -0.598   0.242   0.113
    1UNL    H26   65  -0.297  -0.203   0.065
    1UNL    H27   66  -0.522  -0.362   0.032
    1UNL    H28   67  -0.777  -0.365   0.043
    1UNL    H29   68  -0.877  -0.159   0.041
    1UNL    H30   69  -0.772   0.055   0.025
    1UNL    H31   70  -0.200   0.080   0.167
    1UNL    H32   71  -0.146   0.114  -0.126
    1UNL    H33   72  -0.147  -0.055  -0.074
    1UNL    H34   73   0.024  -0.033   0.088
   0.00000   0.00000   0.00000   0.00000   0.00000   0.00000   0.00000   0.00000   0.00000
Generated with MDTraj, t= 28.0
 73
    1UNL     C1    1  -0.009  -0.333  -0.208
    1UNL     O1    2  -0.009  -0.209  -0.134
    1UNL     C2    3   0.102  -0.144  -0.170
    1UNL     O2    4   0.189  -0.182  -0.251
    1UNL     C3    5   0.112  -0.008  -0.105
    1UNL     C4    6   0.198   0.080  -0.162
    1UNL     O3    7   0.241   0.192  -0.098
    1UNL     C5    8   0.218   0.182   0.040
    1UNL     O4    9   0.280   0.062   0.095
    1UNL     C6   10   0.418   0.071   0.094
    1UNL     O5   11   0.488  -0.033   0.170
    1UNL     C7   12   0.487  -0.161   0.110
    1UNL     C8   13   0.341  -0.220   0.126
    1UNL     O6   14   0.328  -0.344   0.070
    1UNL     C9   15   0.534  -0.159  -0.039
    1UNL     O7   16   0.548  -0.283  -0.116
    1UNL    C10   17   0.470  -0.051  -0.124
    1UNL     O8   18   0.539  -0.041  -0.252
    1UNL    C11   19   0.483   0.084  -0.049
    1UNL     O9   20   0.617   0.132  -0.061
    1UNL    C12   21   0.066   0.175   0.075
    1UNL    C13   22  -0.001   0.309   0.033
    1UNL    O10   23   0.087   0.421   0.052
    1UNL    C14   24  -0.129   0.329   0.110
    1UNL     N1   25  -0.250   0.248   0.056
    1UNL    C15   26  -0.395   0.304   0.068
    1UNL    C16   27  -0.523   0.217   0.045
    1UNL    C17   28  -0.491   0.072   0.065
    1UNL    C18   29  -0.363   0.022   0.082
    1UNL     N2   30  -0.366  -0.118   0.066
    1UNL    C19   31  -0.501  -0.149   0.066
    1UNL    C20   32  -0.565  -0.276   0.052
    1UNL    C21   33  -0.698  -0.289   0.036
    1UNL    C22   34  -0.775  -0.170   0.025
    1UNL    C23   35  -0.722  -0.046   0.027
    1UNL    C24   36  -0.584  -0.036   0.051
    1UNL    C25   37  -0.235   0.101   0.067
    1UNL    C26   38  -0.131   0.054  -0.035
    1UNL    C27   39   0.012   0.041   0.010
    1UNL     H1   40   0.044  -0.406  -0.146
    1UNL     H2   41   0.039  -0.330  -0.302
    1UNL     H3   42  -0.109  -0.363  -0.222
    1UNL     H4   43   0.241   0.061  -0.258
    1UNL     H5   44   0.245   0.277   0.100
    1UNL     H6   45   0.446   0.164   0.147
    1UNL     H7   46   0.555  -0.237   0.166
    1UNL     H8   47   0.264  -0.154   0.090
    1UNL     H9   48   0.309  -0.233   0.228
    1UNL    H10   49   0.381  -0.359  -0.012
    1UNL    H11   50   0.638  -0.120  -0.036
    1UNL    H12   51   0.562  -0.267  -0.210
    1UNL    H13   52   0.361  -0.082  -0.142
    1UNL    H14   53   0.491   0.030  -0.305
    1UNL    H15   54   0.425   0.152  -0.105
    1UNL    H16   55   0.679   0.077  -0.009
    1UNL    H17   56   0.040   0.167   0.184
    1UNL    H18   57  -0.001   0.309  -0.077
    1UNL    H19   58   0.148   0.447  -0.027
    1UNL    H20   59  -0.112   0.304   0.212
    1UNL    H21   60  -0.166   0.431   0.101
    1UNL    H22   61  -0.395   0.381  -0.010
    1UNL    H23   62  -0.404   0.369   0.156
    1UNL    H24   63  -0.554   0.228  -0.060
    1UNL    H25   64  -0.609   0.246   0.110
    1UNL    H26   65  -0.283  -0.172   0.050
    1UNL    H27   66  -0.506  -0.370   0.029
    1UNL    H28   67  -0.738  -0.386   0.025
    1UNL    H29   68  -0.882  -0.186  -0.009
    1UNL    H30   69  -0.789   0.032   0.009
    1UNL    H31   70  -0.182   0.082   0.161
    1UNL    H32   71  -0.119   0.120  -0.122
    1UNL    H33   72  -0.165  -0.045  -0.076
    1UNL    H34   73   0.020  -0.033   0.083
   0.00000   0.00000   0.00000   0.00000   0.00000   0.00000   0.00000   0.00000   0.00000
Generated with MDTraj, t= 29.0
 73
    1UNL     C1    1  -0.011  -0.324  -0.220
    1UNL     O1    2  -0.029  -0.194  -0.168
    1UNL     C2    3   0.092  -0.131  -0.169
    1UNL     O2    4   0.197  -0.184  -0.204
    1UNL     C3    5   0.096   0.000  -0.111
    1UNL     C4    6   0.186   0.096  -0.155
    1UNL     O3    7   0.231   0.197  -0.084
    1UNL     C5    8   0.214   0.169   0.054
    1UNL     O4    9   0.286   0.052   0.100
    1UNL     C6   10   0.425   0.073   0.090
    1UNL     O5   11   0.499  -0.036   0.161
    1UNL     C7   12   0.478  -0.156   0.098
    1UNL     C8   13   0.329  -0.204   0.108
    1UNL     O6   14   0.320  -0.338   0.089
    1UNL     C9   15   0.539  -0.163  -0.045
    1UNL     O7   16   0.517  -0.285  -0.114
    1UNL    C10   17   0.480  -0.050  -0.129
    1UNL     O8   18   0.541  -0.032  -0.256
    1UNL    C11   19   0.481   0.088  -0.055
    1UNL     O9   20   0.608   0.142  -0.057
    1UNL    C12   21   0.062   0.160   0.085
    1UNL    C13   22  -0.004   0.296   0.033
    1UNL    O10   23   0.084   0.400   0.065
    1UNL    C14   24  -0.149   0.333   0.094
    1UNL     N1   25  -0.253   0.242   0.044
    1UNL    C15   26  -0.390   0.283   0.081
    1UNL    C16   27  -0.497   0.213   0.002
    1UNL    C17   28  -0.480   0.072   0.043
    1UNL    C18   29  -0.355   0.021   0.070
    1UNL     N2   30  -0.362  -0.112   0.083
    1UNL    C19   31  -0.490  -0.149   0.063
    1UNL    C20   32  -0.554  -0.271   0.070
    1UNL    C21   33  -0.688  -0.277   0.059
    1UNL    C22   34  -0.764  -0.166   0.029
    1UNL    C23   35  -0.704  -0.040   0.033
    1UNL    C24   36  -0.568  -0.036   0.040
    1UNL    C25   37  -0.227   0.100   0.062
    1UNL    C26   38  -0.134   0.034  -0.040
    1UNL    C27   39   0.009   0.028   0.008
    1UNL     H1   40   0.072  -0.369  -0.164
    1UNL     H2   41   0.007  -0.333  -0.322
    1UNL     H3   42  -0.104  -0.370  -0.190
    1UNL     H4   43   0.244   0.071  -0.245
    1UNL     H5   44   0.246   0.259   0.114
    1UNL     H6   45   0.451   0.162   0.149
    1UNL     H7   46   0.544  -0.226   0.163
    1UNL     H8   47   0.258  -0.150   0.043
    1UNL     H9   48   0.293  -0.181   0.206
    1UNL    H10   49   0.388  -0.364   0.023
    1UNL    H11   50   0.648  -0.151  -0.034
    1UNL    H12   51   0.479  -0.273  -0.202
    1UNL    H13   52   0.374  -0.086  -0.156
    1UNL    H14   53   0.637  -0.049  -0.251
    1UNL    H15   54   0.418   0.154  -0.109
    1UNL    H16   55   0.674   0.103   0.001
    1UNL    H17   56   0.039   0.153   0.195
    1UNL    H18   57   0.003   0.295  -0.079
    1UNL    H19   58   0.165   0.416   0.003
    1UNL    H20   59  -0.156   0.317   0.200
    1UNL    H21   60  -0.175   0.435   0.059
    1UNL    H22   61  -0.400   0.392   0.075
    1UNL    H23   62  -0.411   0.264   0.188
    1UNL    H24   63  -0.468   0.218  -0.105
    1UNL    H25   64  -0.599   0.255   0.022
    1UNL    H26   65  -0.285  -0.175   0.089
    1UNL    H27   66  -0.489  -0.356   0.088
    1UNL    H28   67  -0.747  -0.371   0.064
    1UNL    H29   68  -0.874  -0.175   0.003
    1UNL    H30   69  -0.762   0.056   0.011
    1UNL    H31   70  -0.174   0.097   0.157
    1UNL    H32   71  -0.143   0.105  -0.123
    1UNL    H33   72  -0.164  -0.067  -0.082
    1UNL    H34   73   0.019  -0.055   0.071
   0.00000   0.00000   0.00000   0.00000   0.00000   0.00000   0.00000   0.00000   0.00000
Generated with MDTraj, t= 30.0
 73
    1UNL     C1    1  -0.010  -0.314  -0.229
    1UNL     O1    2  -0.026  -0.190  -0.159
    1UNL     C2    3   0.096  -0.120  -0.170
    1UNL     O2    4   0.194  -0.169  -0.224
    1UNL     C3    5   0.110   0.013  -0.118
    1UNL     C4    6   0.209   0.094  -0.167
    1UNL     O3    7   0.249   0.204  -0.102
    1UNL     C5    8   0.228   0.185   0.046
    1UNL     O4    9   0.301   0.071   0.106
    1UNL     C6   10   0.444   0.073   0.098
    1UNL     O5   11   0.503  -0.041   0.168
    1UNL     C7   12   0.477  -0.161   0.102
    1UNL     C8   13   0.333  -0.200   0.113
    1UNL     O6   14   0.313  -0.337   0.086
    1UNL     C9   15   0.521  -0.173  -0.050
    1UNL     O7   16   0.456  -0.282  -0.119
    1UNL    C10   17   0.484  -0.037  -0.130
    1UNL     O8   18   0.552  -0.023  -0.248
    1UNL    C11   19   0.505   0.089  -0.042
    1UNL     O9   20   0.639   0.123  -0.031
    1UNL    C12   21   0.077   0.170   0.070
    1UNL    C13   22  -0.005   0.299   0.033
    1UNL    O10   23   0.073   0.412   0.032
    1UNL    C14   24  -0.142   0.309   0.119
    1UNL     N1   25  -0.254   0.223   0.061
    1UNL    C15   26  -0.389   0.292   0.072
    1UNL    C16   27  -0.501   0.206   0.018
    1UNL    C17   28  -0.475   0.061   0.036
    1UNL    C18   29  -0.353   0.005   0.055
    1UNL     N2   30  -0.375  -0.126   0.087
    1UNL    C19   31  -0.508  -0.155   0.081
    1UNL    C20   32  -0.575  -0.277   0.113
    1UNL    C21   33  -0.709  -0.281   0.077
    1UNL    C22   34  -0.776  -0.171   0.020
    1UNL    C23   35  -0.713  -0.049   0.003
    1UNL    C24   36  -0.578  -0.043   0.034
    1UNL    C25   37  -0.229   0.078   0.064
    1UNL    C26   38  -0.133   0.034  -0.047
    1UNL    C27   39   0.017   0.043  -0.005
    1UNL     H1   40   0.057  -0.377  -0.163
    1UNL     H2   41   0.034  -0.302  -0.323
    1UNL     H3   42  -0.111  -0.357  -0.234
    1UNL     H4   43   0.257   0.069  -0.262
    1UNL     H5   44   0.276   0.274   0.088
    1UNL     H6   45   0.475   0.161   0.155
    1UNL     H7   46   0.545  -0.223   0.169
    1UNL     H8   47   0.275  -0.133   0.044
    1UNL     H9   48   0.293  -0.174   0.209
    1UNL    H10   49   0.362  -0.359   0.003
    1UNL    H11   50   0.628  -0.191  -0.065
    1UNL    H12   51   0.368  -0.244  -0.154
    1UNL    H13   52   0.375  -0.046  -0.160
    1UNL    H14   53   0.644  -0.006  -0.224
    1UNL    H15   54   0.451   0.171  -0.082
    1UNL    H16   55   0.689   0.051   0.011
    1UNL    H17   56   0.069   0.146   0.180
    1UNL    H18   57  -0.037   0.280  -0.073
    1UNL    H19   58   0.138   0.395  -0.035
    1UNL    H20   59  -0.123   0.284   0.220
    1UNL    H21   60  -0.187   0.409   0.099
    1UNL    H22   61  -0.393   0.387   0.020
    1UNL    H23   62  -0.409   0.315   0.179
    1UNL    H24   63  -0.504   0.225  -0.092
    1UNL    H25   64  -0.597   0.228   0.071
    1UNL    H26   65  -0.304  -0.180   0.132
    1UNL    H27   66  -0.528  -0.345   0.175
    1UNL    H28   67  -0.762  -0.364   0.116
    1UNL    H29   68  -0.872  -0.176  -0.008
    1UNL    H30   69  -0.757   0.037  -0.034
    1UNL    H31   70  -0.188   0.049   0.160
    1UNL    H32   71  -0.143   0.105  -0.130
    1UNL    H33   72  -0.173  -0.067  -0.084
    1UNL    H34   73   0.026  -0.029   0.070
   0.00000   0.00000   0.00000   0.00000   0.00000   0.00000   0.00000   0.00000   0.00000
Generated with MDTraj, t= 31.0
 73
    1UNL     C1    1   0.011  -0.322  -0.231
    1UNL     O1    2  -0.002  -0.201  -0.162
    1UNL     C2    3   0.099  -0.118  -0.197
    1UNL     O2    4   0.186  -0.145  -0.279
    1UNL     C3    5   0.108   0.013  -0.121
    1UNL     C4    6   0.205   0.096  -0.165
    1UNL     O3    7   0.236   0.217  -0.104
    1UNL     C5    8   0.222   0.197   0.038
    1UNL     O4    9   0.284   0.074   0.074
    1UNL     C6   10   0.425   0.080   0.104
    1UNL     O5   11   0.484  -0.038   0.168
    1UNL     C7   12   0.452  -0.162   0.100
    1UNL     C8   13   0.310  -0.194   0.136
    1UNL     O6   14   0.283  -0.332   0.112
    1UNL     C9   15   0.496  -0.163  -0.055
    1UNL     O7   16   0.424  -0.268  -0.125
    1UNL    C10   17   0.481  -0.017  -0.130
    1UNL     O8   18   0.570  -0.002  -0.239
    1UNL    C11   19   0.505   0.096  -0.031
    1UNL     O9   20   0.640   0.097  -0.010
    1UNL    C12   21   0.074   0.165   0.069
    1UNL    C13   22   0.004   0.295   0.015
    1UNL    O10   23   0.090   0.402   0.026
    1UNL    C14   24  -0.129   0.322   0.088
    1UNL     N1   25  -0.232   0.215   0.066
    1UNL    C15   26  -0.370   0.274   0.086
    1UNL    C16   27  -0.467   0.197  -0.011
    1UNL    C17   28  -0.460   0.051   0.017
    1UNL    C18   29  -0.347  -0.002   0.073
    1UNL     N2   30  -0.375  -0.132   0.109
    1UNL    C19   31  -0.511  -0.166   0.087
    1UNL    C20   32  -0.582  -0.285   0.096
    1UNL    C21   33  -0.717  -0.285   0.074
    1UNL    C22   34  -0.779  -0.154   0.051
    1UNL    C23   35  -0.709  -0.038   0.024
    1UNL    C24   36  -0.570  -0.046   0.037
    1UNL    C25   37  -0.211   0.066   0.091
    1UNL    C26   38  -0.119   0.012  -0.024
    1UNL    C27   39   0.029   0.030   0.003
    1UNL     H1   40   0.107  -0.373  -0.188
    1UNL     H2   41   0.023  -0.302  -0.334
    1UNL     H3   42  -0.083  -0.383  -0.209
    1UNL     H4   43   0.246   0.088  -0.267
    1UNL     H5   44   0.268   0.279   0.091
    1UNL     H6   45   0.457   0.169   0.159
    1UNL     H7   46   0.513  -0.239   0.145
    1UNL     H8   47   0.235  -0.132   0.079
    1UNL     H9   48   0.285  -0.186   0.241
    1UNL    H10   49   0.321  -0.368   0.030
    1UNL    H11   50   0.597  -0.194  -0.083
    1UNL    H12   51   0.363  -0.227  -0.190
    1UNL    H13   52   0.380  -0.010  -0.181
    1UNL    H14   53   0.662   0.033  -0.215
    1UNL    H15   54   0.488   0.191  -0.072
    1UNL    H16   55   0.658   0.017   0.049
    1UNL    H17   56   0.073   0.162   0.184
    1UNL    H18   57  -0.036   0.278  -0.089
    1UNL    H19   58   0.156   0.392  -0.054
    1UNL    H20   59  -0.103   0.320   0.190
    1UNL    H21   60  -0.170   0.419   0.050
    1UNL    H22   61  -0.377   0.380   0.065
    1UNL    H23   62  -0.399   0.264   0.193
    1UNL    H24   63  -0.435   0.212  -0.117
    1UNL    H25   64  -0.573   0.226   0.005
    1UNL    H26   65  -0.301  -0.189   0.147
    1UNL    H27   66  -0.535  -0.377   0.145
    1UNL    H28   67  -0.782  -0.371   0.094
    1UNL    H29   68  -0.892  -0.146   0.030
    1UNL    H30   69  -0.758   0.051  -0.015
    1UNL    H31   70  -0.179   0.054   0.192
    1UNL    H32   71  -0.157   0.057  -0.116
    1UNL    H33   72  -0.134  -0.101  -0.035
    1UNL    H34   73   0.061  -0.044   0.070
   0.00000   0.00000   0.00000   0.00000   0.00000   0.00000   0.00000   0.00000   0.00000
Generated with MDTraj, t= 32.0
 73
    1UNL     C1    1   0.033  -0.327  -0.227
    1UNL     O1    2   0.015  -0.209  -0.165
    1UNL     C2    3   0.104  -0.115  -0.211
    1UNL     O2    4   0.190  -0.133  -0.298
    1UNL     C3    5   0.110   0.017  -0.141
    1UNL     C4    6   0.218   0.099  -0.171
    1UNL     O3    7   0.248   0.206  -0.092
    1UNL     C5    8   0.220   0.183   0.044
    1UNL     O4    9   0.289   0.074   0.105
    1UNL     C6   10   0.436   0.071   0.117
    1UNL     O5   11   0.484  -0.049   0.175
    1UNL     C7   12   0.446  -0.167   0.102
    1UNL     C8   13   0.298  -0.203   0.129
    1UNL     O6   14   0.257  -0.332   0.086
    1UNL     C9   15   0.499  -0.175  -0.043
    1UNL     O7   16   0.421  -0.264  -0.127
    1UNL    C10   17   0.482  -0.032  -0.111
    1UNL     O8   18   0.554  -0.017  -0.230
    1UNL    C11   19   0.509   0.093  -0.022
    1UNL     O9   20   0.647   0.126  -0.014
    1UNL    C12   21   0.067   0.161   0.061
    1UNL    C13   22  -0.013   0.285   0.007
    1UNL    O10   23   0.072   0.399   0.003
    1UNL    C14   24  -0.133   0.309   0.104
    1UNL     N1   25  -0.245   0.237   0.049
    1UNL    C15   26  -0.381   0.294   0.082
    1UNL    C16   27  -0.491   0.205   0.016
    1UNL    C17   28  -0.468   0.054   0.034
    1UNL    C18   29  -0.346   0.002   0.078
    1UNL     N2   30  -0.361  -0.133   0.119
    1UNL    C19   31  -0.494  -0.165   0.100
    1UNL    C20   32  -0.569  -0.285   0.110
    1UNL    C21   33  -0.705  -0.277   0.087
    1UNL    C22   34  -0.777  -0.162   0.042
    1UNL    C23   35  -0.701  -0.049   0.025
    1UNL    C24   36  -0.558  -0.053   0.048
    1UNL    C25   37  -0.218   0.087   0.075
    1UNL    C26   38  -0.125   0.036  -0.053
    1UNL    C27   39   0.028   0.039  -0.024
    1UNL     H1   40   0.149  -0.345  -0.233
    1UNL     H2   41  -0.009  -0.314  -0.325
    1UNL     H3   42  -0.020  -0.410  -0.167
    1UNL     H4   43   0.277   0.093  -0.262
    1UNL     H5   44   0.236   0.273   0.096
    1UNL     H6   45   0.478   0.145   0.185
    1UNL     H7   46   0.490  -0.240   0.166
    1UNL     H8   47   0.232  -0.139   0.061
    1UNL     H9   48   0.270  -0.188   0.234
    1UNL    H10   49   0.299  -0.345  -0.003
    1UNL    H11   50   0.605  -0.201  -0.044
    1UNL    H12   51   0.357  -0.226  -0.188
    1UNL    H13   52   0.371  -0.036  -0.133
    1UNL    H14   53   0.646   0.006  -0.208
    1UNL    H15   54   0.463   0.177  -0.067
    1UNL    H16   55   0.694   0.048   0.018
    1UNL    H17   56   0.052   0.144   0.174
    1UNL    H18   57  -0.057   0.270  -0.092
    1UNL    H19   58   0.147   0.382  -0.051
    1UNL    H20   59  -0.108   0.283   0.203
    1UNL    H21   60  -0.143   0.419   0.092
    1UNL    H22   61  -0.380   0.392   0.038
    1UNL    H23   62  -0.407   0.316   0.189
    1UNL    H24   63  -0.502   0.222  -0.093
    1UNL    H25   64  -0.589   0.224   0.063
    1UNL    H26   65  -0.286  -0.200   0.135
    1UNL    H27   66  -0.525  -0.369   0.152
    1UNL    H28   67  -0.768  -0.369   0.091
    1UNL    H29   68  -0.877  -0.169   0.012
    1UNL    H30   69  -0.724   0.041  -0.038
    1UNL    H31   70  -0.169   0.076   0.171
    1UNL    H32   71  -0.139   0.097  -0.141
    1UNL    H33   72  -0.156  -0.070  -0.083
    1UNL    H34   73   0.048  -0.046   0.035
   0.00000   0.00000   0.00000   0.00000   0.00000   0.00000   0.00000   0.00000   0.00000
Generated with MDTraj, t= 33.0
 73
    1UNL     C1    1   0.033  -0.316  -0.236
    1UNL     O1    2   0.009  -0.201  -0.168
    1UNL     C2    3   0.117  -0.111  -0.185
    1UNL     O2    4   0.224  -0.146  -0.234
    1UNL     C3    5   0.101   0.026  -0.132
    1UNL     C4    6   0.199   0.118  -0.166
    1UNL     O3    7   0.251   0.213  -0.082
    1UNL     C5    8   0.212   0.181   0.051
    1UNL     O4    9   0.269   0.058   0.095
    1UNL     C6   10   0.413   0.066   0.103
    1UNL     O5   11   0.469  -0.049   0.176
    1UNL     C7   12   0.451  -0.177   0.096
    1UNL     C8   13   0.297  -0.204   0.095
    1UNL     O6   14   0.264  -0.333   0.064
    1UNL     C9   15   0.505  -0.176  -0.047
    1UNL     O7   16   0.446  -0.278  -0.132
    1UNL    C10   17   0.466  -0.041  -0.111
    1UNL     O8   18   0.539  -0.025  -0.236
    1UNL    C11   19   0.494   0.079  -0.027
    1UNL     O9   20   0.629   0.099   0.004
    1UNL    C12   21   0.060   0.174   0.056
    1UNL    C13   22   0.002   0.301  -0.001
    1UNL    O10   23   0.099   0.411   0.027
    1UNL    C14   24  -0.132   0.338   0.062
    1UNL     N1   25  -0.242   0.248   0.031
    1UNL    C15   26  -0.380   0.294   0.080
    1UNL    C16   27  -0.494   0.216   0.021
    1UNL    C17   28  -0.475   0.069   0.050
    1UNL    C18   29  -0.350   0.013   0.062
    1UNL     N2   30  -0.354  -0.125   0.079
    1UNL    C19   31  -0.484  -0.163   0.091
    1UNL    C20   32  -0.543  -0.289   0.116
    1UNL    C21   33  -0.681  -0.303   0.096
    1UNL    C22   34  -0.764  -0.189   0.060
    1UNL    C23   35  -0.706  -0.068   0.046
    1UNL    C24   36  -0.563  -0.049   0.056
    1UNL    C25   37  -0.228   0.100   0.057
    1UNL    C26   38  -0.133   0.036  -0.051
    1UNL    C27   39   0.016   0.048  -0.011
    1UNL     H1   40   0.141  -0.344  -0.209
    1UNL     H2   41   0.029  -0.285  -0.338
    1UNL     H3   42  -0.039  -0.400  -0.214
    1UNL     H4   43   0.248   0.101  -0.260
    1UNL     H5   44   0.240   0.261   0.116
    1UNL     H6   45   0.436   0.142   0.178
    1UNL     H7   46   0.486  -0.254   0.156
    1UNL     H8   47   0.249  -0.131   0.021
    1UNL     H9   48   0.255  -0.196   0.199
    1UNL    H10   49   0.319  -0.358  -0.012
    1UNL    H11   50   0.614  -0.181  -0.042
    1UNL    H12   51   0.365  -0.231  -0.172
    1UNL    H13   52   0.359  -0.053  -0.129
    1UNL    H14   53   0.633  -0.020  -0.216
    1UNL    H15   54   0.453   0.156  -0.088
    1UNL    H16   55   0.665   0.025   0.059
    1UNL    H17   56   0.041   0.161   0.171
    1UNL    H18   57  -0.002   0.291  -0.109
    1UNL    H19   58   0.184   0.403  -0.032
    1UNL    H20   59  -0.106   0.354   0.165
    1UNL    H21   60  -0.160   0.436   0.018
    1UNL    H22   61  -0.408   0.397   0.092
    1UNL    H23   62  -0.369   0.263   0.188
    1UNL    H24   63  -0.496   0.232  -0.089
    1UNL    H25   64  -0.592   0.244   0.059
    1UNL    H26   65  -0.277  -0.180   0.122
    1UNL    H27   66  -0.480  -0.373   0.143
    1UNL    H28   67  -0.720  -0.392   0.127
    1UNL    H29   68  -0.866  -0.206   0.029
    1UNL    H30   69  -0.763   0.013   0.020
    1UNL    H31   70  -0.178   0.095   0.152
    1UNL    H32   71  -0.161   0.075  -0.150
    1UNL    H33   72  -0.151  -0.076  -0.058
    1UNL    H34   73   0.025  -0.025   0.066
   0.00000   0.00000   0.00000   0.00000   0.00000   0.00000   0.00000   0.00000   0.00000
Generated with MDTraj, t= 34.0
 73
    1UNL     C1    1  -0.012  -0.314  -0.218
    1UNL     O1    2  -0.012  -0.179  -0.185
    1UNL     C2    3   0.111  -0.118  -0.188
    1UNL     O2    4   0.207  -0.169  -0.242
    1UNL     C3    5   0.118   0.017  -0.119
    1UNL     C4    6   0.211   0.108  -0.157
    1UNL     O3    7   0.269   0.214  -0.091
    1UNL     C5    8   0.217   0.200   0.041
    1UNL     O4    9   0.267   0.072   0.102
    1UNL     C6   10   0.404   0.054   0.118
    1UNL     O5   11   0.454  -0.063   0.177
    1UNL     C7   12   0.443  -0.188   0.096
    1UNL     C8   13   0.298  -0.232   0.095
    1UNL     O6   14   0.283  -0.366   0.052
    1UNL     C9   15   0.510  -0.178  -0.042
    1UNL     O7   16   0.476  -0.282  -0.138
    1UNL    C10   17   0.470  -0.041  -0.106
    1UNL     O8   18   0.555  -0.026  -0.223
    1UNL    C11   19   0.484   0.081  -0.014
    1UNL     O9   20   0.621   0.094   0.005
    1UNL    C12   21   0.064   0.194   0.053
    1UNL    C13   22  -0.020   0.319   0.011
    1UNL    O10   23   0.064   0.438   0.021
    1UNL    C14   24  -0.149   0.340   0.078
    1UNL     N1   25  -0.252   0.250   0.016
    1UNL    C15   26  -0.396   0.299   0.051
    1UNL    C16   27  -0.515   0.208   0.023
    1UNL    C17   28  -0.468   0.064   0.051
    1UNL    C18   29  -0.340   0.018   0.046
    1UNL     N2   30  -0.337  -0.118   0.059
    1UNL    C19   31  -0.472  -0.163   0.077
    1UNL    C20   32  -0.527  -0.289   0.092
    1UNL    C21   33  -0.664  -0.306   0.095
    1UNL    C22   34  -0.742  -0.190   0.086
    1UNL    C23   35  -0.692  -0.059   0.086
    1UNL    C24   36  -0.555  -0.046   0.064
    1UNL    C25   37  -0.223   0.113   0.048
    1UNL    C26   38  -0.124   0.042  -0.050
    1UNL    C27   39   0.025   0.056  -0.007
    1UNL     H1   40   0.013  -0.373  -0.128
    1UNL     H2   41   0.068  -0.322  -0.288
    1UNL     H3   42  -0.103  -0.349  -0.263
    1UNL     H4   43   0.254   0.086  -0.254
    1UNL     H5   44   0.248   0.288   0.099
    1UNL     H6   45   0.436   0.130   0.191
    1UNL     H7   46   0.499  -0.260   0.151
    1UNL     H8   47   0.243  -0.168   0.020
    1UNL     H9   48   0.262  -0.216   0.203
    1UNL    H10   49   0.342  -0.396  -0.022
    1UNL    H11   50   0.620  -0.181  -0.042
    1UNL    H12   51   0.396  -0.261  -0.193
    1UNL    H13   52   0.369  -0.062  -0.134
    1UNL    H14   53   0.645   0.001  -0.193
    1UNL    H15   54   0.452   0.170  -0.062
    1UNL    H16   55   0.655   0.010   0.048
    1UNL    H17   56   0.043   0.180   0.168
    1UNL    H18   57  -0.038   0.316  -0.096
    1UNL    H19   58   0.147   0.420  -0.027
    1UNL    H20   59  -0.145   0.318   0.181
    1UNL    H21   60  -0.177   0.448   0.072
    1UNL    H22   61  -0.398   0.404   0.023
    1UNL    H23   62  -0.395   0.305   0.162
    1UNL    H24   63  -0.548   0.213  -0.084
    1UNL    H25   64  -0.608   0.230   0.074
    1UNL    H26   65  -0.259  -0.187   0.061
    1UNL    H27   66  -0.465  -0.378   0.108
    1UNL    H28   67  -0.707  -0.411   0.119
    1UNL    H29   68  -0.851  -0.203   0.088
    1UNL    H30   69  -0.756   0.034   0.098
    1UNL    H31   70  -0.171   0.107   0.143
    1UNL    H32   71  -0.145   0.084  -0.150
    1UNL    H33   72  -0.157  -0.064  -0.069
    1UNL    H34   73   0.034  -0.009   0.077
   0.00000   0.00000   0.00000   0.00000   0.00000   0.00000   0.00000   0.00000   0.00000
Generated with MDTraj, t= 35.0
 73
    1UNL     C1    1  -0.027  -0.308  -0.219
    1UNL     O1    2  -0.022  -0.177  -0.175
    1UNL     C2    3   0.098  -0.116  -0.193
    1UNL     O2    4   0.194  -0.169  -0.243
    1UNL     C3    5   0.108   0.023  -0.142
    1UNL     C4    6   0.210   0.109  -0.178
    1UNL     O3    7   0.254   0.205  -0.092
    1UNL     C5    8   0.215   0.168   0.039
    1UNL     O4    9   0.276   0.040   0.082
    1UNL     C6   10   0.412   0.053   0.118
    1UNL     O5   11   0.459  -0.066   0.182
    1UNL     C7   12   0.433  -0.186   0.099
    1UNL     C8   13   0.285  -0.225   0.102
    1UNL     O6   14   0.279  -0.367   0.083
    1UNL     C9   15   0.495  -0.167  -0.041
    1UNL     O7   16   0.453  -0.261  -0.135
    1UNL    C10   17   0.487  -0.024  -0.106
    1UNL     O8   18   0.580  -0.012  -0.207
    1UNL    C11   19   0.505   0.096  -0.005
    1UNL     O9   20   0.642   0.112   0.022
    1UNL    C12   21   0.063   0.184   0.052
    1UNL    C13   22   0.005   0.314  -0.004
    1UNL    O10   23   0.112   0.410   0.021
    1UNL    C14   24  -0.140   0.357   0.052
    1UNL     N1   25  -0.265   0.259   0.023
    1UNL    C15   26  -0.400   0.289   0.092
    1UNL    C16   27  -0.515   0.200   0.040
    1UNL    C17   28  -0.475   0.054   0.041
    1UNL    C18   29  -0.339   0.015   0.042
    1UNL     N2   30  -0.340  -0.121   0.066
    1UNL    C19   31  -0.471  -0.168   0.072
    1UNL    C20   32  -0.526  -0.292   0.089
    1UNL    C21   33  -0.666  -0.301   0.109
    1UNL    C22   34  -0.745  -0.193   0.104
    1UNL    C23   35  -0.692  -0.070   0.078
    1UNL    C24   36  -0.554  -0.065   0.050
    1UNL    C25   37  -0.226   0.114   0.038
    1UNL    C26   38  -0.132   0.065  -0.078
    1UNL    C27   39   0.016   0.056  -0.031
    1UNL     H1   40   0.051  -0.365  -0.172
    1UNL     H2   41  -0.013  -0.306  -0.325
    1UNL     H3   42  -0.120  -0.353  -0.197
    1UNL     H4   43   0.259   0.099  -0.276
    1UNL     H5   44   0.264   0.241   0.109
    1UNL     H6   45   0.417   0.139   0.186
    1UNL     H7   46   0.497  -0.262   0.147
    1UNL     H8   47   0.246  -0.164   0.014
    1UNL     H9   48   0.236  -0.191   0.200
    1UNL    H10   49   0.319  -0.392  -0.003
    1UNL    H11   50   0.605  -0.180  -0.047
    1UNL    H12   51   0.373  -0.226  -0.176
    1UNL    H13   52   0.391  -0.025  -0.148
    1UNL    H14   53   0.666   0.021  -0.168
    1UNL    H15   54   0.476   0.193  -0.042
    1UNL    H16   55   0.666   0.029   0.067
    1UNL    H17   56   0.036   0.177   0.166
    1UNL    H18   57  -0.008   0.308  -0.112
    1UNL    H19   58   0.185   0.390  -0.033
    1UNL    H20   59  -0.134   0.369   0.158
    1UNL    H21   60  -0.186   0.456   0.027
    1UNL    H22   61  -0.414   0.394   0.071
    1UNL    H23   62  -0.378   0.277   0.201
    1UNL    H24   63  -0.543   0.232  -0.063
    1UNL    H25   64  -0.610   0.218   0.089
    1UNL    H26   65  -0.256  -0.182   0.069
    1UNL    H27   66  -0.461  -0.376   0.094
    1UNL    H28   67  -0.704  -0.396   0.123
    1UNL    H29   68  -0.848  -0.204   0.114
    1UNL    H30   69  -0.753   0.015   0.075
    1UNL    H31   70  -0.175   0.123   0.136
    1UNL    H32   71  -0.139   0.148  -0.153
    1UNL    H33   72  -0.175  -0.020  -0.136
    1UNL    H34   73   0.027  -0.027   0.037
   0.00000   0.00000   0.00000   0.00000   0.00000   0.00000   0.00000   0.00000   0.00000
Generated with MDTraj, t= 36.0
 73
    1UNL     C1    1  -0.003  -0.334  -0.249
    1UNL     O1    2  -0.007  -0.210  -0.182
    1UNL     C2    3   0.102  -0.128  -0.215
    1UNL     O2    4   0.189  -0.166  -0.292
    1UNL     C3    5   0.107   0.003  -0.145
    1UNL     C4    6   0.212   0.085  -0.181
    1UNL     O3    7   0.251   0.197  -0.105
    1UNL     C5    8   0.222   0.187   0.034
    1UNL     O4    9   0.275   0.066   0.091
    1UNL     C6   10   0.410   0.069   0.122
    1UNL     O5   11   0.461  -0.053   0.184
    1UNL     C7   12   0.432  -0.166   0.103
    1UNL     C8   13   0.278  -0.195   0.094
    1UNL     O6   14   0.262  -0.332   0.075
    1UNL     C9   15   0.496  -0.166  -0.037
    1UNL     O7   16   0.438  -0.260  -0.121
    1UNL    C10   17   0.486  -0.026  -0.109
    1UNL     O8   18   0.590  -0.010  -0.199
    1UNL    C11   19   0.497   0.094   0.003
    1UNL     O9   20   0.633   0.100   0.037
    1UNL    C12   21   0.070   0.170   0.047
    1UNL    C13   22   0.001   0.307   0.001
    1UNL    O10   23   0.081   0.427  -0.000
    1UNL    C14   24  -0.127   0.328   0.094
    1UNL     N1   25  -0.242   0.244   0.037
    1UNL    C15   26  -0.379   0.286   0.103
    1UNL    C16   27  -0.502   0.211   0.049
    1UNL    C17   28  -0.477   0.066   0.044
    1UNL    C18   29  -0.346   0.022   0.053
    1UNL     N2   30  -0.344  -0.112   0.057
    1UNL    C19   31  -0.475  -0.162   0.083
    1UNL    C20   32  -0.531  -0.287   0.091
    1UNL    C21   33  -0.663  -0.294   0.102
    1UNL    C22   34  -0.750  -0.181   0.098
    1UNL    C23   35  -0.699  -0.061   0.072
    1UNL    C24   36  -0.561  -0.047   0.067
    1UNL    C25   37  -0.222   0.096   0.040
    1UNL    C26   38  -0.129   0.036  -0.065
    1UNL    C27   39   0.019   0.039  -0.029
    1UNL     H1   40   0.097  -0.375  -0.247
    1UNL     H2   41  -0.036  -0.318  -0.352
    1UNL     H3   42  -0.067  -0.405  -0.207
    1UNL     H4   43   0.270   0.066  -0.271
    1UNL     H5   44   0.255   0.279   0.094
    1UNL     H6   45   0.420   0.132   0.213
    1UNL     H7   46   0.469  -0.261   0.156
    1UNL     H8   47   0.219  -0.136   0.018
    1UNL     H9   48   0.231  -0.175   0.195
    1UNL    H10   49   0.308  -0.357  -0.008
    1UNL    H11   50   0.606  -0.186  -0.039
    1UNL    H12   51   0.357  -0.222  -0.170
    1UNL    H13   52   0.397  -0.025  -0.164
    1UNL    H14   53   0.666   0.024  -0.151
    1UNL    H15   54   0.468   0.190  -0.040
    1UNL    H16   55   0.644   0.031   0.106
    1UNL    H17   56   0.052   0.155   0.161
    1UNL    H18   57  -0.042   0.299  -0.102
    1UNL    H19   58   0.161   0.408  -0.063
    1UNL    H20   59  -0.116   0.294   0.196
    1UNL    H21   60  -0.161   0.432   0.117
    1UNL    H22   61  -0.386   0.393   0.091
    1UNL    H23   62  -0.368   0.252   0.210
    1UNL    H24   63  -0.543   0.253  -0.044
    1UNL    H25   64  -0.581   0.223   0.121
    1UNL    H26   65  -0.258  -0.167   0.074
    1UNL    H27   66  -0.472  -0.381   0.090
    1UNL    H28   67  -0.707  -0.392   0.123
    1UNL    H29   68  -0.859  -0.202   0.080
    1UNL    H30   69  -0.763   0.018   0.041
    1UNL    H31   70  -0.181   0.097   0.144
    1UNL    H32   71  -0.137   0.075  -0.170
    1UNL    H33   72  -0.162  -0.069  -0.070
    1UNL    H34   73   0.039  -0.037   0.046
   0.00000   0.00000   0.00000   0.00000   0.00000   0.00000   0.00000   0.00000   0.00000
Generated with MDTraj, t= 37.0
 73
    1UNL     C1    1   0.028  -0.322  -0.252
    1UNL     O1    2   0.005  -0.200  -0.190
    1UNL     C2    3   0.113  -0.117  -0.211
    1UNL     O2    4   0.213  -0.152  -0.271
    1UNL     C3    5   0.103   0.020  -0.155
    1UNL     C4    6   0.200   0.110  -0.184
    1UNL     O3    7   0.247   0.210  -0.102
    1UNL     C5    8   0.219   0.187   0.035
    1UNL     O4    9   0.278   0.066   0.084
    1UNL     C6   10   0.421   0.067   0.120
    1UNL     O5   11   0.473  -0.051   0.185
    1UNL     C7   12   0.437  -0.169   0.111
    1UNL     C8   13   0.283  -0.189   0.111
    1UNL     O6   14   0.227  -0.308   0.061
    1UNL     C9   15   0.496  -0.166  -0.034
    1UNL     O7   16   0.449  -0.267  -0.121
    1UNL    C10   17   0.495  -0.033  -0.105
    1UNL     O8   18   0.584  -0.022  -0.208
    1UNL    C11   19   0.507   0.085  -0.004
    1UNL     O9   20   0.638   0.114   0.030
    1UNL    C12   21   0.065   0.177   0.042
    1UNL    C13   22   0.009   0.311  -0.016
    1UNL    O10   23   0.096   0.423  -0.012
    1UNL    C14   24  -0.131   0.326   0.055
    1UNL     N1   25  -0.235   0.220   0.040
    1UNL    C15   26  -0.372   0.277   0.109
    1UNL    C16   27  -0.490   0.197   0.054
    1UNL    C17   28  -0.470   0.054   0.075
    1UNL    C18   29  -0.350  -0.001   0.071
    1UNL     N2   30  -0.358  -0.144   0.075
    1UNL    C19   31  -0.497  -0.173   0.087
    1UNL    C20   32  -0.571  -0.296   0.076
    1UNL    C21   33  -0.703  -0.286   0.085
    1UNL    C22   34  -0.769  -0.163   0.082
    1UNL    C23   35  -0.711  -0.042   0.082
    1UNL    C24   36  -0.565  -0.047   0.091
    1UNL    C25   37  -0.220   0.074   0.061
    1UNL    C26   38  -0.130   0.018  -0.051
    1UNL    C27   39   0.018   0.040  -0.031
    1UNL     H1   40   0.099  -0.385  -0.201
    1UNL     H2   41   0.051  -0.309  -0.363
    1UNL     H3   42  -0.066  -0.374  -0.250
    1UNL     H4   43   0.265   0.100  -0.270
    1UNL     H5   44   0.255   0.273   0.102
    1UNL     H6   45   0.442   0.144   0.197
    1UNL     H7   46   0.480  -0.252   0.181
    1UNL     H8   47   0.235  -0.112   0.048
    1UNL     H9   48   0.233  -0.170   0.208
    1UNL    H10   49   0.298  -0.332  -0.005
    1UNL    H11   50   0.604  -0.186  -0.017
    1UNL    H12   51   0.379  -0.235  -0.189
    1UNL    H13   52   0.395  -0.029  -0.148
    1UNL    H14   53   0.677  -0.009  -0.178
    1UNL    H15   54   0.475   0.171  -0.068
    1UNL    H16   55   0.659   0.047   0.102
    1UNL    H17   56   0.039   0.165   0.155
    1UNL    H18   57  -0.010   0.289  -0.124
    1UNL    H19   58   0.175   0.402  -0.064
    1UNL    H20   59  -0.112   0.358   0.157
    1UNL    H21   60  -0.182   0.417   0.016
    1UNL    H22   61  -0.380   0.382   0.082
    1UNL    H23   62  -0.371   0.249   0.219
    1UNL    H24   63  -0.491   0.214  -0.054
    1UNL    H25   64  -0.584   0.225   0.098
    1UNL    H26   65  -0.286  -0.212   0.046
    1UNL    H27   66  -0.511  -0.379   0.101
    1UNL    H28   67  -0.768  -0.372   0.101
    1UNL    H29   68  -0.874  -0.178   0.082
    1UNL    H30   69  -0.760   0.057   0.051
    1UNL    H31   70  -0.175   0.081   0.163
    1UNL    H32   71  -0.148   0.069  -0.151
    1UNL    H33   72  -0.138  -0.090  -0.062
    1UNL    H34   73   0.052  -0.034   0.039
   0.00000   0.00000   0.00000   0.00000   0.00000   0.00000   0.00000   0.00000   0.00000
Generated with MDTraj, t= 38.0
 73
    1UNL     C1    1   0.027  -0.309  -0.243
    1UNL     O1    2   0.005  -0.174  -0.208
    1UNL     C2    3   0.126  -0.113  -0.199
    1UNL     O2    4   0.228  -0.153  -0.247
    1UNL     C3    5   0.127   0.021  -0.132
    1UNL     C4    6   0.221   0.116  -0.156
    1UNL     O3    7   0.266   0.212  -0.079
    1UNL     C5    8   0.215   0.190   0.049
    1UNL     O4    9   0.274   0.080   0.113
    1UNL     C6   10   0.425   0.071   0.113
    1UNL     O5   11   0.462  -0.049   0.172
    1UNL     C7   12   0.430  -0.166   0.102
    1UNL     C8   13   0.285  -0.210   0.090
    1UNL     O6   14   0.272  -0.351   0.081
    1UNL     C9   15   0.499  -0.166  -0.034
    1UNL     O7   16   0.453  -0.275  -0.117
    1UNL    C10   17   0.485  -0.034  -0.115
    1UNL     O8   18   0.569  -0.032  -0.225
    1UNL    C11   19   0.510   0.089  -0.024
    1UNL     O9   20   0.654   0.110  -0.003
    1UNL    C12   21   0.061   0.179   0.049
    1UNL    C13   22  -0.013   0.294  -0.025
    1UNL    O10   23   0.071   0.404  -0.042
    1UNL    C14   24  -0.148   0.324   0.053
    1UNL     N1   25  -0.256   0.222   0.040
    1UNL    C15   26  -0.380   0.275   0.112
    1UNL    C16   27  -0.505   0.199   0.080
    1UNL    C17   28  -0.477   0.059   0.075
    1UNL    C18   29  -0.346   0.002   0.072
    1UNL     N2   30  -0.364  -0.139   0.072
    1UNL    C19   31  -0.500  -0.166   0.075
    1UNL    C20   32  -0.571  -0.285   0.085
    1UNL    C21   33  -0.704  -0.281   0.084
    1UNL    C22   34  -0.775  -0.159   0.076
    1UNL    C23   35  -0.708  -0.041   0.062
    1UNL    C24   36  -0.569  -0.046   0.065
    1UNL    C25   37  -0.224   0.081   0.066
    1UNL    C26   38  -0.119   0.023  -0.052
    1UNL    C27   39   0.026   0.041  -0.019
    1UNL     H1   40   0.058  -0.369  -0.159
    1UNL     H2   41   0.095  -0.324  -0.338
    1UNL     H3   42  -0.070  -0.351  -0.276
    1UNL     H4   43   0.273   0.105  -0.249
    1UNL     H5   44   0.241   0.280   0.116
    1UNL     H6   45   0.459   0.154   0.177
    1UNL     H7   46   0.477  -0.249   0.172
    1UNL     H8   47   0.224  -0.160   0.013
    1UNL     H9   48   0.221  -0.183   0.175
    1UNL    H10   49   0.323  -0.387   0.005
    1UNL    H11   50   0.607  -0.186  -0.019
    1UNL    H12   51   0.379  -0.240  -0.165
    1UNL    H13   52   0.383  -0.044  -0.158
    1UNL    H14   53   0.659   0.004  -0.211
    1UNL    H15   54   0.478   0.178  -0.086
    1UNL    H16   55   0.670   0.082   0.087
    1UNL    H17   56   0.022   0.167   0.157
    1UNL    H18   57  -0.044   0.263  -0.129
    1UNL    H19   58   0.164   0.383  -0.076
    1UNL    H20   59  -0.121   0.348   0.156
    1UNL    H21   60  -0.174   0.427   0.021
    1UNL    H22   61  -0.397   0.375   0.072
    1UNL    H23   62  -0.347   0.268   0.220
    1UNL    H24   63  -0.546   0.236  -0.014
    1UNL    H25   64  -0.574   0.224   0.160
    1UNL    H26   65  -0.297  -0.217   0.073
    1UNL    H27   66  -0.519  -0.379   0.113
    1UNL    H28   67  -0.752  -0.372   0.110
    1UNL    H29   68  -0.884  -0.164   0.087
    1UNL    H30   69  -0.768   0.040   0.050
    1UNL    H31   70  -0.167   0.085   0.162
    1UNL    H32   71  -0.134   0.069  -0.154
    1UNL    H33   72  -0.128  -0.084  -0.063
    1UNL    H34   73   0.050  -0.034   0.050
   0.00000   0.00000   0.00000   0.00000   0.00000   0.00000   0.00000   0.00000   0.00000
Generated with MDTraj, t= 39.0
 73
    1UNL     C1    1  -0.000  -0.302  -0.263
    1UNL     O1    2  -0.013  -0.194  -0.170
    1UNL     C2    3   0.107  -0.124  -0.182
    1UNL     O2    4   0.201  -0.156  -0.252
    1UNL     C3    5   0.105   0.009  -0.122
    1UNL     C4    6   0.199   0.100  -0.169
    1UNL     O3    7   0.260   0.197  -0.100
    1UNL     C5    8   0.218   0.182   0.038
    1UNL     O4    9   0.267   0.059   0.093
    1UNL     C6   10   0.412   0.068   0.115
    1UNL     O5   11   0.473  -0.047   0.174
    1UNL     C7   12   0.470  -0.174   0.111
    1UNL     C8   13   0.323  -0.226   0.134
    1UNL     O6   14   0.297  -0.351   0.084
    1UNL     C9   15   0.523  -0.171  -0.041
    1UNL     O7   16   0.480  -0.293  -0.109
    1UNL    C10   17   0.467  -0.038  -0.115
    1UNL     O8   18   0.546  -0.019  -0.230
    1UNL    C11   19   0.480   0.086  -0.023
    1UNL     O9   20   0.617   0.113  -0.001
    1UNL    C12   21   0.068   0.180   0.049
    1UNL    C13   22  -0.008   0.304  -0.012
    1UNL    O10   23   0.079   0.414  -0.012
    1UNL    C14   24  -0.138   0.336   0.065
    1UNL     N1   25  -0.250   0.244   0.047
    1UNL    C15   26  -0.378   0.283   0.114
    1UNL    C16   27  -0.507   0.213   0.046
    1UNL    C17   28  -0.476   0.066   0.049
    1UNL    C18   29  -0.350   0.020   0.059
    1UNL     N2   30  -0.352  -0.116   0.060
    1UNL    C19   31  -0.488  -0.154   0.060
    1UNL    C20   32  -0.541  -0.281   0.068
    1UNL    C21   33  -0.680  -0.292   0.073
    1UNL    C22   34  -0.764  -0.184   0.078
    1UNL    C23   35  -0.707  -0.054   0.080
    1UNL    C24   36  -0.568  -0.040   0.055
    1UNL    C25   37  -0.223   0.098   0.060
    1UNL    C26   38  -0.128   0.044  -0.047
    1UNL    C27   39   0.017   0.044  -0.001
    1UNL     H1   40   0.083  -0.367  -0.241
    1UNL     H2   41   0.004  -0.260  -0.375
    1UNL     H3   42  -0.090  -0.367  -0.261
    1UNL     H4   43   0.233   0.077  -0.270
    1UNL     H5   44   0.261   0.265   0.102
    1UNL     H6   45   0.423   0.157   0.179
    1UNL     H7   46   0.545  -0.247   0.162
    1UNL     H8   47   0.243  -0.161   0.098
    1UNL     H9   48   0.302  -0.229   0.240
    1UNL    H10   49   0.353  -0.374   0.005
    1UNL    H11   50   0.633  -0.164  -0.057
    1UNL    H12   51   0.400  -0.270  -0.169
    1UNL    H13   52   0.360  -0.058  -0.143
    1UNL    H14   53   0.604   0.060  -0.223
    1UNL    H15   54   0.441   0.177  -0.078
    1UNL    H16   55   0.641   0.061   0.076
    1UNL    H17   56   0.038   0.179   0.161
    1UNL    H18   57  -0.029   0.285  -0.121
    1UNL    H19   58   0.162   0.385  -0.060
    1UNL    H20   59  -0.111   0.360   0.169
    1UNL    H21   60  -0.165   0.442   0.042
    1UNL    H22   61  -0.371   0.390   0.126
    1UNL    H23   62  -0.375   0.232   0.215
    1UNL    H24   63  -0.518   0.247  -0.055
    1UNL    H25   64  -0.600   0.237   0.097
    1UNL    H26   65  -0.281  -0.184   0.084
    1UNL    H27   66  -0.480  -0.365   0.050
    1UNL    H28   67  -0.723  -0.394   0.074
    1UNL    H29   68  -0.868  -0.196   0.067
    1UNL    H30   69  -0.775   0.030   0.098
    1UNL    H31   70  -0.172   0.086   0.161
    1UNL    H32   71  -0.139   0.090  -0.148
    1UNL    H33   72  -0.151  -0.062  -0.061
    1UNL    H34   73   0.035  -0.020   0.080
   0.00000   0.00000   0.00000   0.00000   0.00000   0.00000   0.00000   0.00000   0.00000
Generated with MDTraj, t= 40.0
 73
    1UNL     C1    1  -0.035  -0.321  -0.222
    1UNL     O1    2  -0.044  -0.192  -0.172
    1UNL     C2    3   0.078  -0.130  -0.196
    1UNL     O2    4   0.170  -0.176  -0.258
    1UNL     C3    5   0.097   0.003  -0.137
    1UNL     C4    6   0.196   0.085  -0.180
    1UNL     O3    7   0.251   0.188  -0.104
    1UNL     C5    8   0.217   0.168   0.034
    1UNL     O4    9   0.285   0.057   0.096
    1UNL     C6   10   0.429   0.079   0.111
    1UNL     O5   11   0.488  -0.031   0.182
    1UNL     C7   12   0.466  -0.155   0.117
    1UNL     C8   13   0.323  -0.208   0.113
    1UNL     O6   14   0.315  -0.348   0.110
    1UNL     C9   15   0.513  -0.164  -0.033
    1UNL     O7   16   0.467  -0.274  -0.105
    1UNL    C10   17   0.474  -0.031  -0.114
    1UNL     O8   18   0.525  -0.021  -0.246
    1UNL    C11   19   0.496   0.097  -0.025
    1UNL     O9   20   0.636   0.125  -0.007
    1UNL    C12   21   0.071   0.159   0.062
    1UNL    C13   22   0.002   0.292   0.027
    1UNL    O10   23   0.095   0.399   0.059
    1UNL    C14   24  -0.133   0.315   0.093
    1UNL     N1   25  -0.248   0.254   0.032
    1UNL    C15   26  -0.386   0.312   0.067
    1UNL    C16   27  -0.511   0.216   0.056
    1UNL    C17   28  -0.469   0.068   0.056
    1UNL    C18   29  -0.346   0.015   0.044
    1UNL     N2   30  -0.344  -0.122   0.054
    1UNL    C19   31  -0.477  -0.162   0.068
    1UNL    C20   32  -0.535  -0.292   0.069
    1UNL    C21   33  -0.678  -0.298   0.061
    1UNL    C22   34  -0.754  -0.178   0.052
    1UNL    C23   35  -0.696  -0.053   0.067
    1UNL    C24   36  -0.557  -0.043   0.060
    1UNL    C25   37  -0.224   0.102   0.041
    1UNL    C26   38  -0.130   0.060  -0.067
    1UNL    C27   39   0.016   0.036  -0.019
    1UNL     H1   40   0.064  -0.356  -0.238
    1UNL     H2   41  -0.109  -0.337  -0.312
    1UNL     H3   42  -0.075  -0.381  -0.141
    1UNL     H4   43   0.254   0.065  -0.272
    1UNL     H5   44   0.257   0.256   0.087
    1UNL     H6   45   0.439   0.173   0.169
    1UNL     H7   46   0.537  -0.223   0.170
    1UNL     H8   47   0.283  -0.161   0.024
    1UNL     H9   48   0.266  -0.163   0.192
    1UNL    H10   49   0.367  -0.372   0.032
    1UNL    H11   50   0.625  -0.166  -0.033
    1UNL    H12   51   0.397  -0.246  -0.167
    1UNL    H13   52   0.362  -0.040  -0.123
    1UNL    H14   53   0.623  -0.006  -0.235
    1UNL    H15   54   0.456   0.186  -0.087
    1UNL    H16   55   0.670   0.061   0.059
    1UNL    H17   56   0.048   0.146   0.175
    1UNL    H18   57  -0.006   0.305  -0.084
    1UNL    H19   58   0.168   0.394  -0.006
    1UNL    H20   59  -0.133   0.304   0.202
    1UNL    H21   60  -0.145   0.427   0.104
    1UNL    H22   61  -0.403   0.398   0.005
    1UNL    H23   62  -0.364   0.356   0.169
    1UNL    H24   63  -0.567   0.240  -0.031
    1UNL    H25   64  -0.585   0.236   0.133
    1UNL    H26   65  -0.260  -0.172   0.028
    1UNL    H27   66  -0.468  -0.380   0.070
    1UNL    H28   67  -0.724  -0.392   0.045
    1UNL    H29   68  -0.863  -0.190   0.031
    1UNL    H30   69  -0.764   0.039   0.075
    1UNL    H31   70  -0.179   0.089   0.145
    1UNL    H32   71  -0.135   0.150  -0.134
    1UNL    H33   72  -0.165  -0.019  -0.134
    1UNL    H34   73   0.031  -0.039   0.051
   0.00000   0.00000   0.00000   0.00000   0.00000   0.00000   0.00000   0.00000   0.00000
Generated with MDTraj, t= 41.0
 73
    1UNL     C1    1  -0.045  -0.328  -0.200
    1UNL     O1    2  -0.027  -0.198  -0.140
    1UNL     C2    3   0.087  -0.141  -0.189
    1UNL     O2    4   0.170  -0.195  -0.260
    1UNL     C3    5   0.099   0.005  -0.137
    1UNL     C4    6   0.199   0.085  -0.184
    1UNL     O3    7   0.249   0.193  -0.112
    1UNL     C5    8   0.229   0.183   0.031
    1UNL     O4    9   0.298   0.075   0.100
    1UNL     C6   10   0.436   0.080   0.096
    1UNL     O5   11   0.501  -0.030   0.166
    1UNL     C7   12   0.473  -0.154   0.107
    1UNL     C8   13   0.334  -0.204   0.153
    1UNL     O6   14   0.300  -0.330   0.104
    1UNL     C9   15   0.509  -0.166  -0.045
    1UNL     O7   16   0.446  -0.263  -0.118
    1UNL    C10   17   0.477  -0.036  -0.119
    1UNL     O8   18   0.552  -0.026  -0.240
    1UNL    C11   19   0.500   0.089  -0.036
    1UNL     O9   20   0.642   0.110  -0.031
    1UNL    C12   21   0.080   0.167   0.066
    1UNL    C13   22   0.000   0.298   0.032
    1UNL    O10   23   0.082   0.414   0.081
    1UNL    C14   24  -0.138   0.327   0.093
    1UNL     N1   25  -0.252   0.253   0.049
    1UNL    C15   26  -0.388   0.289   0.103
    1UNL    C16   27  -0.493   0.218   0.031
    1UNL    C17   28  -0.481   0.065   0.040
    1UNL    C18   29  -0.349   0.011   0.053
    1UNL     N2   30  -0.358  -0.125   0.058
    1UNL    C19   31  -0.492  -0.163   0.050
    1UNL    C20   32  -0.553  -0.291   0.042
    1UNL    C21   33  -0.684  -0.301   0.047
    1UNL    C22   34  -0.764  -0.180   0.062
    1UNL    C23   35  -0.704  -0.058   0.045
    1UNL    C24   36  -0.568  -0.047   0.041
    1UNL    C25   37  -0.221   0.103   0.064
    1UNL    C26   38  -0.131   0.063  -0.059
    1UNL    C27   39   0.018   0.041  -0.020
    1UNL     H1   40   0.039  -0.384  -0.175
    1UNL     H2   41  -0.064  -0.323  -0.311
    1UNL     H3   42  -0.129  -0.377  -0.152
    1UNL     H4   43   0.261   0.054  -0.268
    1UNL     H5   44   0.274   0.271   0.075
    1UNL     H6   45   0.462   0.171   0.153
    1UNL     H7   46   0.544  -0.227   0.145
    1UNL     H8   47   0.254  -0.132   0.141
    1UNL     H9   48   0.345  -0.209   0.260
    1UNL    H10   49   0.352  -0.346   0.020
    1UNL    H11   50   0.617  -0.192  -0.049
    1UNL    H12   51   0.367  -0.225  -0.164
    1UNL    H13   52   0.367  -0.054  -0.149
    1UNL    H14   53   0.651  -0.016  -0.224
    1UNL    H15   54   0.456   0.174  -0.101
    1UNL    H16   55   0.667   0.060   0.053
    1UNL    H17   56   0.065   0.146   0.179
    1UNL    H18   57  -0.007   0.306  -0.078
    1UNL    H19   58   0.155   0.439   0.015
    1UNL    H20   59  -0.128   0.314   0.201
    1UNL    H21   60  -0.160   0.436   0.100
    1UNL    H22   61  -0.388   0.396   0.099
    1UNL    H23   62  -0.397   0.260   0.212
    1UNL    H24   63  -0.484   0.246  -0.072
    1UNL    H25   64  -0.590   0.259   0.057
    1UNL    H26   65  -0.276  -0.182   0.071
    1UNL    H27   66  -0.489  -0.375   0.047
    1UNL    H28   67  -0.726  -0.403   0.058
    1UNL    H29   68  -0.866  -0.185   0.080
    1UNL    H30   69  -0.757   0.027   0.044
    1UNL    H31   70  -0.176   0.069   0.161
    1UNL    H32   71  -0.143   0.128  -0.146
    1UNL    H33   72  -0.175  -0.031  -0.099
    1UNL    H34   73   0.033  -0.036   0.048
   0.00000   0.00000   0.00000   0.00000   0.00000   0.00000   0.00000   0.00000   0.00000
Generated with MDTraj, t= 42.0
 73
    1UNL     C1    1   0.000  -0.336  -0.189
    1UNL     O1    2  -0.005  -0.208  -0.128
    1UNL     C2    3   0.108  -0.136  -0.157
    1UNL     O2    4   0.196  -0.179  -0.228
    1UNL     C3    5   0.112   0.007  -0.107
    1UNL     C4    6   0.200   0.103  -0.163
    1UNL     O3    7   0.232   0.220  -0.098
    1UNL     C5    8   0.229   0.200   0.042
    1UNL     O4    9   0.298   0.078   0.079
    1UNL     C6   10   0.433   0.079   0.078
    1UNL     O5   11   0.497  -0.030   0.152
    1UNL     C7   12   0.459  -0.156   0.094
    1UNL     C8   13   0.309  -0.185   0.120
    1UNL     O6   14   0.275  -0.321   0.144
    1UNL     C9   15   0.497  -0.171  -0.066
    1UNL     O7   16   0.437  -0.283  -0.127
    1UNL    C10   17   0.476  -0.041  -0.144
    1UNL     O8   18   0.571  -0.036  -0.255
    1UNL    C11   19   0.495   0.086  -0.060
    1UNL     O9   20   0.641   0.110  -0.052
    1UNL    C12   21   0.079   0.177   0.081
    1UNL    C13   22  -0.010   0.297   0.042
    1UNL    O10   23   0.058   0.424   0.029
    1UNL    C14   24  -0.125   0.315   0.124
    1UNL     N1   25  -0.239   0.234   0.070
    1UNL    C15   26  -0.373   0.277   0.127
    1UNL    C16   27  -0.486   0.214   0.051
    1UNL    C17   28  -0.467   0.062   0.029
    1UNL    C18   29  -0.348   0.007   0.043
    1UNL     N2   30  -0.367  -0.129   0.038
    1UNL    C19   31  -0.497  -0.167   0.033
    1UNL    C20   32  -0.570  -0.289   0.045
    1UNL    C21   33  -0.709  -0.288   0.051
    1UNL    C22   34  -0.783  -0.169   0.028
    1UNL    C23   35  -0.713  -0.051   0.010
    1UNL    C24   36  -0.566  -0.045   0.028
    1UNL    C25   37  -0.218   0.085   0.077
    1UNL    C26   38  -0.110   0.045  -0.026
    1UNL    C27   39   0.031   0.040   0.018
    1UNL     H1   40   0.056  -0.395  -0.125
    1UNL     H2   41   0.048  -0.325  -0.289
    1UNL     H3   42  -0.098  -0.378  -0.198
    1UNL     H4   43   0.238   0.081  -0.262
    1UNL     H5   44   0.276   0.273   0.104
    1UNL     H6   45   0.465   0.171   0.129
    1UNL     H7   46   0.517  -0.231   0.137
    1UNL     H8   47   0.244  -0.155   0.040
    1UNL     H9   48   0.271  -0.131   0.206
    1UNL    H10   49   0.291  -0.376   0.066
    1UNL    H11   50   0.606  -0.188  -0.066
    1UNL    H12   51   0.353  -0.262  -0.167
    1UNL    H13   52   0.369  -0.054  -0.186
    1UNL    H14   53   0.661  -0.017  -0.224
    1UNL    H15   54   0.452   0.179  -0.114
    1UNL    H16   55   0.660   0.069   0.032
    1UNL    H17   56   0.070   0.169   0.196
    1UNL    H18   57  -0.059   0.281  -0.055
    1UNL    H19   58   0.126   0.415  -0.048
    1UNL    H20   59  -0.109   0.289   0.229
    1UNL    H21   60  -0.144   0.424   0.142
    1UNL    H22   61  -0.386   0.382   0.114
    1UNL    H23   62  -0.365   0.254   0.237
    1UNL    H24   63  -0.509   0.268  -0.038
    1UNL    H25   64  -0.574   0.221   0.115
    1UNL    H26   65  -0.286  -0.186   0.051
    1UNL    H27   66  -0.503  -0.371   0.079
    1UNL    H28   67  -0.764  -0.372   0.083
    1UNL    H29   68  -0.896  -0.176   0.021
    1UNL    H30   69  -0.758   0.042  -0.028
    1UNL    H31   70  -0.199   0.055   0.181
    1UNL    H32   71  -0.129   0.116  -0.106
    1UNL    H33   72  -0.135  -0.052  -0.077
    1UNL    H34   73   0.040  -0.028   0.097
   0.00000   0.00000   0.00000   0.00000   0.00000   0.00000   0.00000   0.00000   0.00000
Generated with MDTraj, t= 43.0
 73
    1UNL     C1    1   0.053  -0.343  -0.157
    1UNL     O1    2   0.016  -0.212  -0.120
    1UNL     C2    3   0.110  -0.127  -0.163
    1UNL     O2    4   0.195  -0.160  -0.238
    1UNL     C3    5   0.107   0.012  -0.118
    1UNL     C4    6   0.192   0.108  -0.164
    1UNL     O3    7   0.244   0.209  -0.088
    1UNL     C5    8   0.229   0.187   0.045
    1UNL     O4    9   0.298   0.075   0.092
    1UNL     C6   10   0.440   0.085   0.079
    1UNL     O5   11   0.504  -0.023   0.151
    1UNL     C7   12   0.463  -0.151   0.104
    1UNL     C8   13   0.317  -0.174   0.105
    1UNL     O6   14   0.281  -0.312   0.103
    1UNL     C9   15   0.512  -0.177  -0.051
    1UNL     O7   16   0.443  -0.293  -0.098
    1UNL    C10   17   0.471  -0.053  -0.135
    1UNL     O8   18   0.542  -0.057  -0.257
    1UNL    C11   19   0.491   0.086  -0.070
    1UNL     O9   20   0.634   0.126  -0.089
    1UNL    C12   21   0.074   0.174   0.080
    1UNL    C13   22  -0.009   0.295   0.027
    1UNL    O10   23   0.070   0.416   0.022
    1UNL    C14   24  -0.136   0.323   0.104
    1UNL     N1   25  -0.242   0.228   0.085
    1UNL    C15   26  -0.374   0.278   0.142
    1UNL    C16   27  -0.489   0.204   0.059
    1UNL    C17   28  -0.474   0.055   0.065
    1UNL    C18   29  -0.351  -0.005   0.087
    1UNL     N2   30  -0.377  -0.141   0.076
    1UNL    C19   31  -0.510  -0.165   0.049
    1UNL    C20   32  -0.584  -0.284   0.024
    1UNL    C21   33  -0.718  -0.279  -0.013
    1UNL    C22   34  -0.787  -0.150  -0.009
    1UNL    C23   35  -0.715  -0.031   0.019
    1UNL    C24   36  -0.581  -0.042   0.040
    1UNL    C25   37  -0.221   0.080   0.085
    1UNL    C26   38  -0.121   0.041  -0.031
    1UNL    C27   39   0.028   0.041   0.010
    1UNL     H1   40   0.149  -0.361  -0.118
    1UNL     H2   41   0.052  -0.348  -0.268
    1UNL     H3   42  -0.017  -0.409  -0.108
    1UNL     H4   43   0.234   0.092  -0.262
    1UNL     H5   44   0.271   0.261   0.109
    1UNL     H6   45   0.469   0.176   0.136
    1UNL     H7   46   0.516  -0.220   0.160
    1UNL     H8   47   0.271  -0.135   0.016
    1UNL     H9   48   0.263  -0.133   0.191
    1UNL    H10   49   0.333  -0.357   0.036
    1UNL    H11   50   0.620  -0.186  -0.053
    1UNL    H12   51   0.374  -0.262  -0.168
    1UNL    H13   52   0.361  -0.069  -0.160
    1UNL    H14   53   0.635  -0.023  -0.242
    1UNL    H15   54   0.437   0.172  -0.124
    1UNL    H16   55   0.685   0.094  -0.011
    1UNL    H17   56   0.062   0.163   0.195
    1UNL    H18   57  -0.033   0.265  -0.074
    1UNL    H19   58   0.155   0.390  -0.008
    1UNL    H20   59  -0.115   0.346   0.209
    1UNL    H21   60  -0.177   0.421   0.073
    1UNL    H22   61  -0.378   0.385   0.139
    1UNL    H23   62  -0.389   0.242   0.247
    1UNL    H24   63  -0.481   0.232  -0.043
    1UNL    H25   64  -0.589   0.232   0.092
    1UNL    H26   65  -0.311  -0.216   0.068
    1UNL    H27   66  -0.548  -0.384   0.025
    1UNL    H28   67  -0.771  -0.369  -0.049
    1UNL    H29   68  -0.890  -0.149  -0.029
    1UNL    H30   69  -0.766   0.071   0.008
    1UNL    H31   70  -0.168   0.040   0.172
    1UNL    H32   71  -0.132   0.117  -0.106
    1UNL    H33   72  -0.152  -0.057  -0.077
    1UNL    H34   73   0.048  -0.028   0.087
   0.00000   0.00000   0.00000   0.00000   0.00000   0.00000   0.00000   0.00000   0.00000
Generated with MDTraj, t= 44.0
 73
    1UNL     C1    1   0.049  -0.356  -0.142
    1UNL     O1    2   0.026  -0.219  -0.096
    1UNL     C2    3   0.116  -0.147  -0.158
    1UNL     O2    4   0.192  -0.187  -0.241
    1UNL     C3    5   0.102  -0.002  -0.120
    1UNL     C4    6   0.171   0.096  -0.185
    1UNL     O3    7   0.240   0.194  -0.119
    1UNL     C5    8   0.221   0.179   0.024
    1UNL     O4    9   0.287   0.070   0.082
    1UNL     C6   10   0.434   0.087   0.080
    1UNL     O5   11   0.505  -0.018   0.147
    1UNL     C7   12   0.475  -0.154   0.104
    1UNL     C8   13   0.338  -0.195   0.146
    1UNL     O6   14   0.292  -0.316   0.096
    1UNL     C9   15   0.513  -0.162  -0.056
    1UNL     O7   16   0.459  -0.283  -0.111
    1UNL    C10   17   0.458  -0.038  -0.134
    1UNL     O8   18   0.514  -0.021  -0.261
    1UNL    C11   19   0.485   0.090  -0.064
    1UNL     O9   20   0.618   0.112  -0.059
    1UNL    C12   21   0.071   0.164   0.065
    1UNL    C13   22  -0.015   0.284   0.025
    1UNL    O10   23   0.057   0.412   0.029
    1UNL    C14   24  -0.144   0.311   0.117
    1UNL     N1   25  -0.253   0.227   0.077
    1UNL    C15   26  -0.370   0.284   0.140
    1UNL    C16   27  -0.503   0.221   0.099
    1UNL    C17   28  -0.476   0.073   0.082
    1UNL    C18   29  -0.351   0.010   0.088
    1UNL     N2   30  -0.366  -0.125   0.074
    1UNL    C19   31  -0.492  -0.147   0.035
    1UNL    C20   32  -0.558  -0.268   0.003
    1UNL    C21   33  -0.695  -0.263  -0.029
    1UNL    C22   34  -0.768  -0.145  -0.025
    1UNL    C23   35  -0.709  -0.025   0.014
    1UNL    C24   36  -0.567  -0.030   0.036
    1UNL    C25   37  -0.219   0.082   0.091
    1UNL    C26   38  -0.127   0.026  -0.022
    1UNL    C27   39   0.027   0.029   0.005
    1UNL     H1   40   0.143  -0.393  -0.102
    1UNL     H2   41   0.060  -0.350  -0.250
    1UNL     H3   42  -0.032  -0.425  -0.111
    1UNL     H4   43   0.207   0.072  -0.285
    1UNL     H5   44   0.258   0.262   0.084
    1UNL     H6   45   0.451   0.173   0.147
    1UNL     H7   46   0.548  -0.218   0.143
    1UNL     H8   47   0.266  -0.120   0.119
    1UNL     H9   48   0.349  -0.213   0.255
    1UNL    H10   49   0.351  -0.344   0.020
    1UNL    H11   50   0.620  -0.169  -0.065
    1UNL    H12   51   0.377  -0.264  -0.161
    1UNL    H13   52   0.350  -0.055  -0.159
    1UNL    H14   53   0.606   0.008  -0.252
    1UNL    H15   54   0.436   0.177  -0.121
    1UNL    H16   55   0.661   0.065   0.020
    1UNL    H17   56   0.069   0.150   0.180
    1UNL    H18   57  -0.056   0.267  -0.074
    1UNL    H19   58   0.111   0.439  -0.055
    1UNL    H20   59  -0.129   0.296   0.224
    1UNL    H21   60  -0.162   0.420   0.110
    1UNL    H22   61  -0.381   0.384   0.105
    1UNL    H23   62  -0.357   0.278   0.252
    1UNL    H24   63  -0.532   0.255   0.001
    1UNL    H25   64  -0.584   0.237   0.169
    1UNL    H26   65  -0.299  -0.200   0.084
    1UNL    H27   66  -0.496  -0.354  -0.019
    1UNL    H28   67  -0.747  -0.348  -0.063
    1UNL    H29   68  -0.875  -0.126  -0.047
    1UNL    H30   69  -0.766   0.055   0.039
    1UNL    H31   70  -0.172   0.070   0.188
    1UNL    H32   71  -0.147   0.081  -0.111
    1UNL    H33   72  -0.138  -0.087  -0.037
    1UNL    H34   73   0.059  -0.042   0.076
   0.00000   0.00000   0.00000   0.00000   0.00000   0.00000   0.00000   0.00000   0.00000
Generated with MDTraj, t= 45.0
 73
    1UNL     C1    1   0.023  -0.362  -0.117
    1UNL     O1    2  -0.023  -0.231  -0.087
    1UNL     C2    3   0.085  -0.156  -0.132
    1UNL     O2    4   0.165  -0.206  -0.208
    1UNL     C3    5   0.089  -0.015  -0.096
    1UNL     C4    6   0.177   0.065  -0.169
    1UNL     O3    7   0.238   0.180  -0.115
    1UNL     C5    8   0.222   0.179   0.026
    1UNL     O4    9   0.297   0.082   0.091
    1UNL     C6   10   0.444   0.094   0.088
    1UNL     O5   11   0.498  -0.013   0.148
    1UNL     C7   12   0.468  -0.143   0.088
    1UNL     C8   13   0.330  -0.209   0.106
    1UNL     O6   14   0.339  -0.350   0.120
    1UNL     C9   15   0.507  -0.144  -0.070
    1UNL     O7   16   0.462  -0.268  -0.132
    1UNL    C10   17   0.459  -0.015  -0.145
    1UNL     O8   18   0.507  -0.009  -0.274
    1UNL    C11   19   0.502   0.109  -0.063
    1UNL     O9   20   0.638   0.123  -0.042
    1UNL    C12   21   0.076   0.172   0.066
    1UNL    C13   22   0.003   0.294   0.026
    1UNL    O10   23   0.092   0.405   0.013
    1UNL    C14   24  -0.125   0.330   0.110
    1UNL     N1   25  -0.245   0.238   0.098
    1UNL    C15   26  -0.375   0.272   0.165
    1UNL    C16   27  -0.501   0.213   0.094
    1UNL    C17   28  -0.475   0.070   0.069
    1UNL    C18   29  -0.350   0.016   0.058
    1UNL     N2   30  -0.364  -0.121   0.035
    1UNL    C19   31  -0.500  -0.155   0.030
    1UNL    C20   32  -0.557  -0.273  -0.018
    1UNL    C21   33  -0.690  -0.271  -0.039
    1UNL    C22   34  -0.766  -0.153  -0.030
    1UNL    C23   35  -0.709  -0.039   0.021
    1UNL    C24   36  -0.574  -0.036   0.051
    1UNL    C25   37  -0.221   0.089   0.082
    1UNL    C26   38  -0.129   0.055  -0.029
    1UNL    C27   39   0.012   0.039   0.019
    1UNL     H1   40   0.117  -0.384  -0.059
    1UNL     H2   41   0.039  -0.370  -0.223
    1UNL     H3   42  -0.059  -0.432  -0.081
    1UNL     H4   43   0.206   0.028  -0.268
    1UNL     H5   44   0.254   0.275   0.072
    1UNL     H6   45   0.472   0.183   0.146
    1UNL     H7   46   0.536  -0.206   0.144
    1UNL     H8   47   0.271  -0.183   0.021
    1UNL     H9   48   0.290  -0.177   0.206
    1UNL    H10   49   0.378  -0.384   0.038
    1UNL    H11   50   0.613  -0.147  -0.070
    1UNL    H12   51   0.373  -0.253  -0.169
    1UNL    H13   52   0.353  -0.025  -0.159
    1UNL    H14   53   0.602  -0.029  -0.259
    1UNL    H15   54   0.469   0.204  -0.116
    1UNL    H16   55   0.667   0.057   0.022
    1UNL    H17   56   0.067   0.162   0.181
    1UNL    H18   57  -0.033   0.272  -0.076
    1UNL    H19   58   0.113   0.419  -0.085
    1UNL    H20   59  -0.088   0.339   0.213
    1UNL    H21   60  -0.151   0.431   0.080
    1UNL    H22   61  -0.383   0.378   0.175
    1UNL    H23   62  -0.372   0.232   0.269
    1UNL    H24   63  -0.513   0.257  -0.004
    1UNL    H25   64  -0.597   0.223   0.142
    1UNL    H26   65  -0.286  -0.176  -0.001
    1UNL    H27   66  -0.494  -0.355  -0.052
    1UNL    H28   67  -0.744  -0.362  -0.075
    1UNL    H29   68  -0.870  -0.159  -0.055
    1UNL    H30   69  -0.759   0.054   0.061
    1UNL    H31   70  -0.188   0.052   0.177
    1UNL    H32   71  -0.132   0.125  -0.111
    1UNL    H33   72  -0.160  -0.047  -0.070
    1UNL    H34   73   0.020  -0.025   0.102
   0.00000   0.00000   0.00000   0.00000   0.00000   0.00000   0.00000   0.00000   0.00000
Generated with MDTraj, t= 46.0
 73
    1UNL     C1    1  -0.041  -0.333  -0.095
    1UNL     O1    2  -0.027  -0.204  -0.056
    1UNL     C2    3   0.088  -0.160  -0.121
    1UNL     O2    4   0.164  -0.228  -0.185
    1UNL     C3    5   0.097  -0.015  -0.107
    1UNL     C4    6   0.190   0.066  -0.169
    1UNL     O3    7   0.227   0.185  -0.115
    1UNL     C5    8   0.225   0.177   0.027
    1UNL     O4    9   0.294   0.067   0.086
    1UNL     C6   10   0.441   0.083   0.082
    1UNL     O5   11   0.519  -0.020   0.132
    1UNL     C7   12   0.499  -0.150   0.081
    1UNL     C8   13   0.363  -0.213   0.131
    1UNL     O6   14   0.330  -0.342   0.086
    1UNL     C9   15   0.531  -0.153  -0.075
    1UNL     O7   16   0.474  -0.271  -0.131
    1UNL    C10   17   0.480  -0.024  -0.145
    1UNL     O8   18   0.548  -0.017  -0.264
    1UNL    C11   19   0.495   0.106  -0.068
    1UNL     O9   20   0.622   0.155  -0.050
    1UNL    C12   21   0.081   0.177   0.073
    1UNL    C13   22  -0.004   0.299   0.030
    1UNL    O10   23   0.069   0.422   0.038
    1UNL    C14   24  -0.133   0.306   0.109
    1UNL     N1   25  -0.255   0.231   0.079
    1UNL    C15   26  -0.383   0.289   0.136
    1UNL    C16   27  -0.511   0.203   0.110
    1UNL    C17   28  -0.478   0.065   0.075
    1UNL    C18   29  -0.353   0.007   0.065
    1UNL     N2   30  -0.361  -0.126   0.021
    1UNL    C19   31  -0.497  -0.156   0.001
    1UNL    C20   32  -0.567  -0.269  -0.040
    1UNL    C21   33  -0.701  -0.267  -0.036
    1UNL    C22   34  -0.772  -0.147   0.003
    1UNL    C23   35  -0.713  -0.031   0.017
    1UNL    C24   36  -0.572  -0.037   0.030
    1UNL    C25   37  -0.226   0.083   0.082
    1UNL    C26   38  -0.128   0.045  -0.032
    1UNL    C27   39   0.018   0.038   0.012
    1UNL     H1   40   0.047  -0.401  -0.065
    1UNL     H2   41  -0.066  -0.334  -0.198
    1UNL     H3   42  -0.133  -0.367  -0.038
    1UNL     H4   43   0.243   0.021  -0.253
    1UNL     H5   44   0.285   0.273   0.050
    1UNL     H6   45   0.460   0.171   0.145
    1UNL     H7   46   0.563  -0.228   0.129
    1UNL     H8   47   0.283  -0.155   0.089
    1UNL     H9   48   0.363  -0.222   0.244
    1UNL    H10   49   0.381  -0.361   0.003
    1UNL    H11   50   0.637  -0.155  -0.085
    1UNL    H12   51   0.377  -0.253  -0.163
    1UNL    H13   52   0.383  -0.039  -0.178
    1UNL    H14   53   0.642   0.006  -0.244
    1UNL    H15   54   0.444   0.190  -0.124
    1UNL    H16   55   0.668   0.097   0.016
    1UNL    H17   56   0.082   0.164   0.187
    1UNL    H18   57  -0.028   0.295  -0.079
    1UNL    H19   58   0.131   0.431  -0.036
    1UNL    H20   59  -0.108   0.287   0.215
    1UNL    H21   60  -0.167   0.411   0.104
    1UNL    H22   61  -0.397   0.393   0.113
    1UNL    H23   62  -0.372   0.291   0.245
    1UNL    H24   63  -0.582   0.235   0.033
    1UNL    H25   64  -0.575   0.198   0.195
    1UNL    H26   65  -0.278  -0.187   0.023
    1UNL    H27   66  -0.514  -0.358  -0.060
    1UNL    H28   67  -0.753  -0.354  -0.065
    1UNL    H29   68  -0.876  -0.157   0.026
    1UNL    H30   69  -0.768   0.063   0.024
    1UNL    H31   70  -0.182   0.068   0.179
    1UNL    H32   71  -0.147   0.116  -0.111
    1UNL    H33   72  -0.167  -0.052  -0.075
    1UNL    H34   73   0.034  -0.031   0.089
   0.00000   0.00000   0.00000   0.00000   0.00000   0.00000   0.00000   0.00000   0.00000
Generated with MDTraj, t= 47.0
 73
    1UNL     C1    1  -0.009  -0.368  -0.111
    1UNL     O1    2  -0.032  -0.232  -0.084
    1UNL     C2    3   0.090  -0.174  -0.121
    1UNL     O2    4   0.177  -0.231  -0.186
    1UNL     C3    5   0.101  -0.026  -0.082
    1UNL     C4    6   0.180   0.057  -0.150
    1UNL     O3    7   0.218   0.181  -0.113
    1UNL     C5    8   0.225   0.185   0.035
    1UNL     O4    9   0.308   0.081   0.088
    1UNL     C6   10   0.449   0.093   0.070
    1UNL     O5   11   0.525  -0.009   0.128
    1UNL     C7   12   0.490  -0.141   0.078
    1UNL     C8   13   0.340  -0.191   0.095
    1UNL     O6   14   0.327  -0.331   0.113
    1UNL     C9   15   0.528  -0.154  -0.071
    1UNL     O7   16   0.468  -0.271  -0.131
    1UNL    C10   17   0.490  -0.031  -0.156
    1UNL     O8   18   0.584  -0.023  -0.263
    1UNL    C11   19   0.498   0.105  -0.078
    1UNL     O9   20   0.634   0.141  -0.070
    1UNL    C12   21   0.075   0.166   0.082
    1UNL    C13   22  -0.002   0.304   0.039
    1UNL    O10   23   0.078   0.429   0.068
    1UNL    C14   24  -0.132   0.313   0.120
    1UNL     N1   25  -0.256   0.238   0.067
    1UNL    C15   26  -0.374   0.282   0.140
    1UNL    C16   27  -0.505   0.220   0.100
    1UNL    C17   28  -0.496   0.074   0.063
    1UNL    C18   29  -0.369   0.017   0.054
    1UNL     N2   30  -0.374  -0.112   0.018
    1UNL    C19   31  -0.508  -0.144  -0.000
    1UNL    C20   32  -0.566  -0.268  -0.040
    1UNL    C21   33  -0.702  -0.266  -0.037
    1UNL    C22   34  -0.783  -0.166   0.002
    1UNL    C23   35  -0.731  -0.041   0.035
    1UNL    C24   36  -0.587  -0.034   0.047
    1UNL    C25   37  -0.236   0.084   0.077
    1UNL    C26   38  -0.126   0.047  -0.028
    1UNL    C27   39   0.013   0.033   0.025
    1UNL     H1   40   0.093  -0.407  -0.075
    1UNL     H2   41  -0.017  -0.383  -0.214
    1UNL     H3   42  -0.083  -0.436  -0.060
    1UNL     H4   43   0.218   0.022  -0.245
    1UNL     H5   44   0.270   0.290   0.049
    1UNL     H6   45   0.465   0.185   0.129
    1UNL     H7   46   0.544  -0.219   0.143
    1UNL     H8   47   0.274  -0.158   0.018
    1UNL     H9   48   0.315  -0.151   0.196
    1UNL    H10   49   0.400  -0.367   0.058
    1UNL    H11   50   0.635  -0.165  -0.066
    1UNL    H12   51   0.371  -0.253  -0.154
    1UNL    H13   52   0.392  -0.042  -0.195
    1UNL    H14   53   0.610   0.070  -0.275
    1UNL    H15   54   0.437   0.189  -0.118
    1UNL    H16   55   0.685   0.076  -0.011
    1UNL    H17   56   0.070   0.155   0.194
    1UNL    H18   57  -0.016   0.313  -0.072
    1UNL    H19   58   0.151   0.437   0.010
    1UNL    H20   59  -0.109   0.272   0.219
    1UNL    H21   60  -0.164   0.415   0.139
    1UNL    H22   61  -0.387   0.389   0.148
    1UNL    H23   62  -0.352   0.264   0.246
    1UNL    H24   63  -0.561   0.277   0.027
    1UNL    H25   64  -0.576   0.219   0.180
    1UNL    H26   65  -0.294  -0.178   0.003
    1UNL    H27   66  -0.504  -0.356  -0.064
    1UNL    H28   67  -0.757  -0.357  -0.062
    1UNL    H29   68  -0.892  -0.173  -0.017
    1UNL    H30   69  -0.786   0.047   0.042
    1UNL    H31   70  -0.195   0.063   0.173
    1UNL    H32   71  -0.120   0.121  -0.111
    1UNL    H33   72  -0.146  -0.048  -0.082
    1UNL    H34   73   0.018  -0.035   0.105
   0.00000   0.00000   0.00000   0.00000   0.00000   0.00000   0.00000   0.00000   0.00000
Generated with MDTraj, t= 48.0
 73
    1UNL     C1    1   0.021  -0.374  -0.124
    1UNL     O1    2  -0.001  -0.244  -0.087
    1UNL     C2    3   0.108  -0.166  -0.132
    1UNL     O2    4   0.194  -0.221  -0.200
    1UNL     C3    5   0.094  -0.019  -0.105
    1UNL     C4    6   0.163   0.071  -0.182
    1UNL     O3    7   0.210   0.183  -0.123
    1UNL     C5    8   0.224   0.177   0.019
    1UNL     O4    9   0.301   0.070   0.072
    1UNL     C6   10   0.439   0.097   0.068
    1UNL     O5   11   0.520  -0.002   0.140
    1UNL     C7   12   0.491  -0.140   0.091
    1UNL     C8   13   0.351  -0.182   0.135
    1UNL     O6   14   0.311  -0.319   0.105
    1UNL     C9   15   0.519  -0.150  -0.058
    1UNL     O7   16   0.464  -0.272  -0.107
    1UNL    C10   17   0.473  -0.033  -0.138
    1UNL     O8   18   0.558  -0.038  -0.256
    1UNL    C11   19   0.486   0.109  -0.079
    1UNL     O9   20   0.623   0.153  -0.085
    1UNL    C12   21   0.079   0.159   0.074
    1UNL    C13   22   0.001   0.295   0.051
    1UNL    O10   23   0.091   0.408   0.065
    1UNL    C14   24  -0.115   0.301   0.150
    1UNL     N1   25  -0.238   0.225   0.108
    1UNL    C15   26  -0.377   0.274   0.154
    1UNL    C16   27  -0.501   0.210   0.081
    1UNL    C17   28  -0.479   0.071   0.052
    1UNL    C18   29  -0.355   0.009   0.048
    1UNL     N2   30  -0.375  -0.125   0.022
    1UNL    C19   31  -0.512  -0.151   0.002
    1UNL    C20   32  -0.582  -0.267  -0.013
    1UNL    C21   33  -0.722  -0.260  -0.020
    1UNL    C22   34  -0.790  -0.139  -0.001
    1UNL    C23   35  -0.717  -0.028   0.027
    1UNL    C24   36  -0.582  -0.027   0.023
    1UNL    C25   37  -0.222   0.079   0.075
    1UNL    C26   38  -0.134   0.060  -0.043
    1UNL    C27   39   0.010   0.041   0.006
    1UNL     H1   40   0.060  -0.438  -0.040
    1UNL     H2   41   0.077  -0.380  -0.209
    1UNL     H3   42  -0.077  -0.416  -0.145
    1UNL     H4   43   0.213   0.051  -0.276
    1UNL     H5   44   0.256   0.281   0.057
    1UNL     H6   45   0.448   0.198   0.115
    1UNL     H7   46   0.571  -0.208   0.141
    1UNL     H8   47   0.291  -0.124   0.067
    1UNL     H9   48   0.330  -0.163   0.242
    1UNL    H10   49   0.272  -0.317   0.016
    1UNL    H11   50   0.628  -0.157  -0.068
    1UNL    H12   51   0.375  -0.261  -0.138
    1UNL    H13   52   0.375  -0.052  -0.179
    1UNL    H14   53   0.629   0.032  -0.264
    1UNL    H15   54   0.432   0.189  -0.131
    1UNL    H16   55   0.683   0.114  -0.020
    1UNL    H17   56   0.083   0.147   0.186
    1UNL    H18   57  -0.030   0.295  -0.055
    1UNL    H19   58   0.034   0.481   0.088
    1UNL    H20   59  -0.083   0.262   0.249
    1UNL    H21   60  -0.145   0.404   0.165
    1UNL    H22   61  -0.377   0.382   0.141
    1UNL    H23   62  -0.398   0.268   0.261
    1UNL    H24   63  -0.521   0.262  -0.013
    1UNL    H25   64  -0.591   0.234   0.134
    1UNL    H26   65  -0.299  -0.197   0.014
    1UNL    H27   66  -0.540  -0.363  -0.025
    1UNL    H28   67  -0.776  -0.349  -0.049
    1UNL    H29   68  -0.893  -0.140  -0.000
    1UNL    H30   69  -0.783   0.064   0.049
    1UNL    H31   70  -0.167   0.033   0.155
    1UNL    H32   71  -0.143   0.148  -0.111
    1UNL    H33   72  -0.160  -0.031  -0.099
    1UNL    H34   73   0.002  -0.030   0.083
   0.00000   0.00000   0.00000   0.00000   0.00000   0.00000   0.00000   0.00000   0.00000
Generated with MDTraj, t= 49.0
 73
    1UNL     C1    1   0.033  -0.360  -0.115
    1UNL     O1    2   0.003  -0.231  -0.110
    1UNL     C2    3   0.109  -0.159  -0.156
    1UNL     O2    4   0.199  -0.212  -0.219
    1UNL     C3    5   0.110  -0.012  -0.126
    1UNL     C4    6   0.197   0.076  -0.190
    1UNL     O3    7   0.247   0.183  -0.131
    1UNL     C5    8   0.221   0.184   0.009
    1UNL     O4    9   0.308   0.085   0.079
    1UNL     C6   10   0.445   0.104   0.069
    1UNL     O5   11   0.522   0.002   0.139
    1UNL     C7   12   0.484  -0.130   0.097
    1UNL     C8   13   0.334  -0.163   0.118
    1UNL     O6   14   0.311  -0.304   0.136
    1UNL     C9   15   0.527  -0.145  -0.052
    1UNL     O7   16   0.478  -0.274  -0.096
    1UNL    C10   17   0.461  -0.034  -0.134
    1UNL     O8   18   0.517  -0.051  -0.270
    1UNL    C11   19   0.491   0.107  -0.076
    1UNL     O9   20   0.634   0.130  -0.092
    1UNL    C12   21   0.075   0.159   0.052
    1UNL    C13   22  -0.011   0.298   0.062
    1UNL    O10   23   0.066   0.404   0.123
    1UNL    C14   24  -0.136   0.275   0.148
    1UNL     N1   25  -0.251   0.209   0.090
    1UNL    C15   26  -0.376   0.253   0.162
    1UNL    C16   27  -0.497   0.217   0.073
    1UNL    C17   28  -0.478   0.069   0.048
    1UNL    C18   29  -0.357   0.002   0.055
    1UNL     N2   30  -0.385  -0.136   0.053
    1UNL    C19   31  -0.522  -0.149   0.026
    1UNL    C20   32  -0.600  -0.266   0.016
    1UNL    C21   33  -0.733  -0.251  -0.014
    1UNL    C22   34  -0.789  -0.125  -0.018
    1UNL    C23   35  -0.719  -0.009   0.008
    1UNL    C24   36  -0.576  -0.021   0.013
    1UNL    C25   37  -0.220   0.065   0.073
    1UNL    C26   38  -0.124   0.028  -0.040
    1UNL    C27   39   0.028   0.027  -0.013
    1UNL     H1   40   0.122  -0.386  -0.053
    1UNL     H2   41   0.045  -0.392  -0.211
    1UNL     H3   42  -0.051  -0.408  -0.067
    1UNL     H4   43   0.245   0.055  -0.287
    1UNL     H5   44   0.247   0.287   0.050
    1UNL     H6   45   0.465   0.202   0.120
    1UNL     H7   46   0.552  -0.205   0.154
    1UNL     H8   47   0.269  -0.142   0.036
    1UNL     H9   48   0.300  -0.116   0.213
    1UNL    H10   49   0.346  -0.360   0.061
    1UNL    H11   50   0.639  -0.153  -0.064
    1UNL    H12   51   0.393  -0.259  -0.150
    1UNL    H13   52   0.351  -0.044  -0.141
    1UNL    H14   53   0.548   0.035  -0.310
    1UNL    H15   54   0.441   0.193  -0.119
    1UNL    H16   55   0.675   0.078  -0.023
    1UNL    H17   56   0.085   0.143   0.162
    1UNL    H18   57  -0.031   0.316  -0.045
    1UNL    H19   58   0.058   0.487   0.064
    1UNL    H20   59  -0.112   0.222   0.242
    1UNL    H21   60  -0.166   0.379   0.165
    1UNL    H22   61  -0.389   0.359   0.191
    1UNL    H23   62  -0.377   0.195   0.252
    1UNL    H24   63  -0.495   0.288  -0.011
    1UNL    H25   64  -0.588   0.242   0.122
    1UNL    H26   65  -0.314  -0.212   0.036
    1UNL    H27   66  -0.547  -0.364   0.013
    1UNL    H28   67  -0.796  -0.336  -0.033
    1UNL    H29   68  -0.901  -0.110  -0.010
    1UNL    H30   69  -0.765   0.077   0.043
    1UNL    H31   70  -0.174   0.028   0.162
    1UNL    H32   71  -0.138   0.120  -0.108
    1UNL    H33   72  -0.161  -0.066  -0.083
    1UNL    H34   73   0.030  -0.051   0.057
   0.00000   0.00000   0.00000   0.00000   0.00000   0.00000   0.00000   0.00000   0.00000
Generated with MDTraj, t= 50.0
 73
    1UNL     C1    1   0.029  -0.358  -0.150
    1UNL     O1    2   0.010  -0.225  -0.096
    1UNL     C2    3   0.108  -0.146  -0.142
    1UNL     O2    4   0.192  -0.188  -0.221
    1UNL     C3    5   0.093   0.003  -0.106
    1UNL     C4    6   0.176   0.088  -0.172
    1UNL     O3    7   0.225   0.199  -0.114
    1UNL     C5    8   0.227   0.187   0.024
    1UNL     O4    9   0.314   0.070   0.062
    1UNL     C6   10   0.449   0.102   0.046
    1UNL     O5   11   0.531   0.014   0.133
    1UNL     C7   12   0.496  -0.125   0.102
    1UNL     C8   13   0.361  -0.167   0.160
    1UNL     O6   14   0.326  -0.303   0.146
    1UNL     C9   15   0.512  -0.150  -0.054
    1UNL     O7   16   0.446  -0.263  -0.098
    1UNL    C10   17   0.466  -0.042  -0.147
    1UNL     O8   18   0.530  -0.068  -0.276
    1UNL    C11   19   0.504   0.096  -0.097
    1UNL     O9   20   0.641   0.113  -0.095
    1UNL    C12   21   0.084   0.157   0.079
    1UNL    C13   22  -0.004   0.283   0.074
    1UNL    O10   23   0.075   0.393   0.096
    1UNL    C14   24  -0.128   0.286   0.168
    1UNL     N1   25  -0.248   0.213   0.103
    1UNL    C15   26  -0.377   0.271   0.136
    1UNL    C16   27  -0.485   0.214   0.042
    1UNL    C17   28  -0.485   0.068   0.033
    1UNL    C18   29  -0.363  -0.003   0.047
    1UNL     N2   30  -0.386  -0.138   0.027
    1UNL    C19   31  -0.522  -0.155   0.022
    1UNL    C20   32  -0.599  -0.273   0.014
    1UNL    C21   33  -0.732  -0.262   0.000
    1UNL    C22   34  -0.801  -0.136  -0.017
    1UNL    C23   35  -0.728  -0.019  -0.001
    1UNL    C24   36  -0.586  -0.028   0.025
    1UNL    C25   37  -0.232   0.066   0.077
    1UNL    C26   38  -0.129   0.039  -0.031
    1UNL    C27   39   0.019   0.038   0.009
    1UNL     H1   40   0.138  -0.383  -0.152
    1UNL     H2   41   0.002  -0.363  -0.251
    1UNL     H3   42  -0.015  -0.438  -0.091
    1UNL     H4   43   0.209   0.063  -0.273
    1UNL     H5   44   0.277   0.278   0.065
    1UNL     H6   45   0.472   0.203   0.086
    1UNL     H7   46   0.584  -0.179   0.150
    1UNL     H8   47   0.284  -0.109   0.114
    1UNL     H9   48   0.360  -0.146   0.268
    1UNL    H10   49   0.353  -0.339   0.059
    1UNL    H11   50   0.623  -0.167  -0.070
    1UNL    H12   51   0.356  -0.234  -0.136
    1UNL    H13   52   0.354  -0.037  -0.168
    1UNL    H14   53   0.608  -0.011  -0.276
    1UNL    H15   54   0.473   0.174  -0.164
    1UNL    H16   55   0.674   0.050  -0.023
    1UNL    H17   56   0.104   0.142   0.188
    1UNL    H18   57  -0.036   0.292  -0.030
    1UNL    H19   58   0.038   0.445   0.178
    1UNL    H20   59  -0.096   0.240   0.265
    1UNL    H21   60  -0.154   0.391   0.179
    1UNL    H22   61  -0.364   0.380   0.135
    1UNL    H23   62  -0.407   0.236   0.232
    1UNL    H24   63  -0.465   0.257  -0.057
    1UNL    H25   64  -0.576   0.264   0.068
    1UNL    H26   65  -0.321  -0.214   0.059
    1UNL    H27   66  -0.547  -0.364   0.007
    1UNL    H28   67  -0.797  -0.351   0.000
    1UNL    H29   68  -0.900  -0.138  -0.046
    1UNL    H30   69  -0.776   0.079   0.008
    1UNL    H31   70  -0.193   0.019   0.166
    1UNL    H32   71  -0.144   0.114  -0.116
    1UNL    H33   72  -0.151  -0.061  -0.070
    1UNL    H34   73   0.017  -0.043   0.077
   0.00000   0.00000   0.00000   0.00000   0.00000   0.00000   0.00000   0.00000   0.00000
Generated with MDTraj, t= 51.0
 73
    1UNL     C1    1   0.005  -0.354  -0.168
    1UNL     O1    2   0.001  -0.236  -0.095
    1UNL     C2    3   0.095  -0.150  -0.141
    1UNL     O2    4   0.172  -0.179  -0.229
    1UNL     C3    5   0.105  -0.011  -0.097
    1UNL     C4    6   0.186   0.074  -0.163
    1UNL     O3    7   0.226   0.197  -0.111
    1UNL     C5    8   0.219   0.197   0.030
    1UNL     O4    9   0.308   0.098   0.093
    1UNL     C6   10   0.446   0.100   0.057
    1UNL     O5   11   0.530  -0.001   0.121
    1UNL     C7   12   0.496  -0.134   0.086
    1UNL     C8   13   0.364  -0.177   0.149
    1UNL     O6   14   0.358  -0.310   0.194
    1UNL     C9   15   0.505  -0.165  -0.067
    1UNL     O7   16   0.430  -0.280  -0.105
    1UNL    C10   17   0.462  -0.052  -0.159
    1UNL     O8   18   0.542  -0.065  -0.276
    1UNL    C11   19   0.483   0.093  -0.096
    1UNL     O9   20   0.611   0.135  -0.113
    1UNL    C12   21   0.080   0.155   0.091
    1UNL    C13   22   0.002   0.293   0.081
    1UNL    O10   23   0.075   0.409   0.116
    1UNL    C14   24  -0.131   0.296   0.159
    1UNL     N1   25  -0.245   0.223   0.084
    1UNL    C15   26  -0.379   0.285   0.122
    1UNL    C16   27  -0.497   0.219   0.040
    1UNL    C17   28  -0.474   0.068   0.032
    1UNL    C18   29  -0.357   0.004   0.051
    1UNL     N2   30  -0.376  -0.135   0.032
    1UNL    C19   31  -0.507  -0.161   0.016
    1UNL    C20   32  -0.585  -0.278   0.002
    1UNL    C21   33  -0.724  -0.269  -0.004
    1UNL    C22   34  -0.791  -0.138  -0.008
    1UNL    C23   35  -0.714  -0.027  -0.010
    1UNL    C24   36  -0.575  -0.035   0.017
    1UNL    C25   37  -0.224   0.073   0.080
    1UNL    C26   38  -0.118   0.042  -0.029
    1UNL    C27   39   0.024   0.024   0.022
    1UNL     H1   40   0.087  -0.420  -0.125
    1UNL     H2   41   0.032  -0.329  -0.270
    1UNL     H3   42  -0.090  -0.405  -0.157
    1UNL     H4   43   0.239   0.044  -0.253
    1UNL     H5   44   0.252   0.295   0.064
    1UNL     H6   45   0.490   0.193   0.098
    1UNL     H7   46   0.581  -0.184   0.134
    1UNL     H8   47   0.289  -0.151   0.077
    1UNL     H9   48   0.344  -0.107   0.232
    1UNL    H10   49   0.408  -0.367   0.130
    1UNL    H11   50   0.614  -0.205  -0.081
    1UNL    H12   51   0.345  -0.258  -0.143
    1UNL    H13   52   0.353  -0.061  -0.192
    1UNL    H14   53   0.612   0.003  -0.257
    1UNL    H15   54   0.431   0.166  -0.154
    1UNL    H16   55   0.663   0.092  -0.042
    1UNL    H17   56   0.084   0.158   0.201
    1UNL    H18   57  -0.029   0.316  -0.020
    1UNL    H19   58   0.057   0.435   0.212
    1UNL    H20   59  -0.123   0.263   0.264
    1UNL    H21   60  -0.164   0.399   0.157
    1UNL    H22   61  -0.372   0.393   0.101
    1UNL    H23   62  -0.382   0.270   0.227
    1UNL    H24   63  -0.499   0.267  -0.059
    1UNL    H25   64  -0.597   0.245   0.073
    1UNL    H26   65  -0.301  -0.208   0.036
    1UNL    H27   66  -0.538  -0.376   0.020
    1UNL    H28   67  -0.776  -0.361  -0.018
    1UNL    H29   68  -0.903  -0.137  -0.009
    1UNL    H30   69  -0.756   0.069  -0.052
    1UNL    H31   70  -0.182   0.042   0.176
    1UNL    H32   71  -0.117   0.127  -0.106
    1UNL    H33   72  -0.145  -0.046  -0.086
    1UNL    H34   73   0.027  -0.057   0.091
   0.00000   0.00000   0.00000   0.00000   0.00000   0.00000   0.00000   0.00000   0.00000
Generated with MDTraj, t= 52.0
 73
    1UNL     C1    1  -0.032  -0.339  -0.134
    1UNL     O1    2  -0.028  -0.203  -0.123
    1UNL     C2    3   0.096  -0.151  -0.146
    1UNL     O2    4   0.186  -0.212  -0.197
    1UNL     C3    5   0.103  -0.011  -0.110
    1UNL     C4    6   0.176   0.086  -0.175
    1UNL     O3    7   0.214   0.199  -0.106
    1UNL     C5    8   0.222   0.178   0.037
    1UNL     O4    9   0.308   0.070   0.079
    1UNL     C6   10   0.447   0.097   0.061
    1UNL     O5   11   0.534   0.003   0.120
    1UNL     C7   12   0.513  -0.138   0.090
    1UNL     C8   13   0.369  -0.176   0.148
    1UNL     O6   14   0.342  -0.306   0.193
    1UNL     C9   15   0.523  -0.168  -0.067
    1UNL     O7   16   0.448  -0.290  -0.108
    1UNL    C10   17   0.462  -0.046  -0.149
    1UNL     O8   18   0.508  -0.051  -0.285
    1UNL    C11   19   0.484   0.093  -0.090
    1UNL     O9   20   0.609   0.140  -0.112
    1UNL    C12   21   0.079   0.151   0.092
    1UNL    C13   22  -0.002   0.284   0.080
    1UNL    O10   23   0.082   0.385   0.125
    1UNL    C14   24  -0.138   0.303   0.149
    1UNL     N1   25  -0.246   0.243   0.076
    1UNL    C15   26  -0.380   0.278   0.136
    1UNL    C16   27  -0.487   0.221   0.042
    1UNL    C17   28  -0.477   0.071   0.036
    1UNL    C18   29  -0.356   0.017   0.056
    1UNL     N2   30  -0.369  -0.118   0.066
    1UNL    C19   31  -0.502  -0.150   0.021
    1UNL    C20   32  -0.559  -0.277  -0.008
    1UNL    C21   33  -0.695  -0.281  -0.029
    1UNL    C22   34  -0.776  -0.166  -0.020
    1UNL    C23   35  -0.713  -0.037  -0.013
    1UNL    C24   36  -0.575  -0.031   0.016
    1UNL    C25   37  -0.222   0.089   0.075
    1UNL    C26   38  -0.124   0.051  -0.035
    1UNL    C27   39   0.020   0.033   0.012
    1UNL     H1   40   0.066  -0.381  -0.090
    1UNL     H2   41  -0.032  -0.356  -0.243
    1UNL     H3   42  -0.118  -0.376  -0.078
    1UNL     H4   43   0.229   0.070  -0.267
    1UNL     H5   44   0.271   0.259   0.086
    1UNL     H6   45   0.465   0.189   0.116
    1UNL     H7   46   0.580  -0.190   0.154
    1UNL     H8   47   0.290  -0.146   0.080
    1UNL     H9   48   0.354  -0.114   0.238
    1UNL    H10   49   0.389  -0.374   0.137
    1UNL    H11   50   0.631  -0.185  -0.106
    1UNL    H12   51   0.358  -0.260  -0.144
    1UNL    H13   52   0.348  -0.056  -0.169
    1UNL    H14   53   0.596  -0.009  -0.284
    1UNL    H15   54   0.420   0.163  -0.138
    1UNL    H16   55   0.660   0.099  -0.041
    1UNL    H17   56   0.097   0.128   0.198
    1UNL    H18   57  -0.013   0.292  -0.028
    1UNL    H19   58   0.105   0.450   0.057
    1UNL    H20   59  -0.143   0.252   0.247
    1UNL    H21   60  -0.169   0.407   0.162
    1UNL    H22   61  -0.384   0.387   0.146
    1UNL    H23   62  -0.383   0.227   0.228
    1UNL    H24   63  -0.514   0.259  -0.059
    1UNL    H25   64  -0.582   0.234   0.093
    1UNL    H26   65  -0.293  -0.182   0.039
    1UNL    H27   66  -0.499  -0.363   0.006
    1UNL    H28   67  -0.746  -0.378  -0.042
    1UNL    H29   68  -0.884  -0.164  -0.029
    1UNL    H30   69  -0.759   0.052  -0.033
    1UNL    H31   70  -0.180   0.058   0.172
    1UNL    H32   71  -0.128   0.121  -0.124
    1UNL    H33   72  -0.150  -0.044  -0.081
    1UNL    H34   73   0.032  -0.046   0.083
   0.00000   0.00000   0.00000   0.00000   0.00000   0.00000   0.00000   0.00000   0.00000
Generated with MDTraj, t= 53.0
 73
    1UNL     C1    1  -0.031  -0.353  -0.150
    1UNL     O1    2  -0.048  -0.214  -0.116
    1UNL     C2    3   0.078  -0.157  -0.123
    1UNL     O2    4   0.171  -0.214  -0.179
    1UNL     C3    5   0.092  -0.013  -0.096
    1UNL     C4    6   0.177   0.069  -0.167
    1UNL     O3    7   0.232   0.182  -0.128
    1UNL     C5    8   0.222   0.192   0.020
    1UNL     O4    9   0.303   0.093   0.081
    1UNL     C6   10   0.444   0.105   0.062
    1UNL     O5   11   0.518   0.006   0.134
    1UNL     C7   12   0.509  -0.135   0.100
    1UNL     C8   13   0.370  -0.187   0.138
    1UNL     O6   14   0.343  -0.318   0.105
    1UNL     C9   15   0.525  -0.158  -0.049
    1UNL     O7   16   0.472  -0.283  -0.092
    1UNL    C10   17   0.458  -0.049  -0.136
    1UNL     O8   18   0.483  -0.059  -0.270
    1UNL    C11   19   0.488   0.088  -0.094
    1UNL     O9   20   0.630   0.105  -0.103
    1UNL    C12   21   0.081   0.174   0.082
    1UNL    C13   22  -0.005   0.312   0.075
    1UNL    O10   23   0.080   0.427   0.090
    1UNL    C14   24  -0.128   0.311   0.167
    1UNL     N1   25  -0.242   0.239   0.109
    1UNL    C15   26  -0.386   0.288   0.130
    1UNL    C16   27  -0.494   0.209   0.071
    1UNL    C17   28  -0.473   0.066   0.054
    1UNL    C18   29  -0.345   0.008   0.065
    1UNL     N2   30  -0.361  -0.127   0.047
    1UNL    C19   31  -0.495  -0.163   0.018
    1UNL    C20   32  -0.556  -0.288  -0.011
    1UNL    C21   33  -0.696  -0.285  -0.036
    1UNL    C22   34  -0.766  -0.161  -0.045
    1UNL    C23   35  -0.701  -0.043  -0.017
    1UNL    C24   36  -0.570  -0.042   0.019
    1UNL    C25   37  -0.219   0.092   0.086
    1UNL    C26   38  -0.127   0.079  -0.032
    1UNL    C27   39   0.010   0.045   0.018
    1UNL     H1   40   0.047  -0.391  -0.078
    1UNL     H2   41   0.022  -0.345  -0.250
    1UNL     H3   42  -0.120  -0.418  -0.157
    1UNL     H4   43   0.205   0.034  -0.265
    1UNL     H5   44   0.265   0.283   0.052
    1UNL     H6   45   0.470   0.200   0.108
    1UNL     H7   46   0.575  -0.186   0.166
    1UNL     H8   47   0.300  -0.122   0.087
    1UNL     H9   48   0.344  -0.169   0.243
    1UNL    H10   49   0.419  -0.376   0.085
    1UNL    H11   50   0.636  -0.155  -0.078
    1UNL    H12   51   0.374  -0.277  -0.120
    1UNL    H13   52   0.342  -0.060  -0.121
    1UNL    H14   53   0.572  -0.028  -0.284
    1UNL    H15   54   0.447   0.162  -0.158
    1UNL    H16   55   0.680   0.070  -0.024
    1UNL    H17   56   0.089   0.142   0.187
    1UNL    H18   57  -0.040   0.311  -0.029
    1UNL    H19   58   0.125   0.448   0.010
    1UNL    H20   59  -0.119   0.271   0.270
    1UNL    H21   60  -0.153   0.415   0.181
    1UNL    H22   61  -0.390   0.392   0.091
    1UNL    H23   62  -0.396   0.285   0.233
    1UNL    H24   63  -0.511   0.244  -0.031
    1UNL    H25   64  -0.595   0.214   0.113
    1UNL    H26   65  -0.279  -0.187   0.061
    1UNL    H27   66  -0.488  -0.370  -0.031
    1UNL    H28   67  -0.742  -0.377  -0.054
    1UNL    H29   68  -0.863  -0.160  -0.084
    1UNL    H30   69  -0.762   0.053  -0.015
    1UNL    H31   70  -0.173   0.056   0.182
    1UNL    H32   71  -0.129   0.168  -0.097
    1UNL    H33   72  -0.169   0.003  -0.101
    1UNL    H34   73   0.001  -0.034   0.092
   0.00000   0.00000   0.00000   0.00000   0.00000   0.00000   0.00000   0.00000   0.00000
Generated with MDTraj, t= 54.0
 73
    1UNL     C1    1  -0.030  -0.335  -0.139
    1UNL     O1    2  -0.021  -0.209  -0.088
    1UNL     C2    3   0.102  -0.159  -0.116
    1UNL     O2    4   0.191  -0.220  -0.175
    1UNL     C3    5   0.111  -0.013  -0.090
    1UNL     C4    6   0.184   0.077  -0.158
    1UNL     O3    7   0.237   0.192  -0.110
    1UNL     C5    8   0.226   0.185   0.031
    1UNL     O4    9   0.299   0.080   0.079
    1UNL     C6   10   0.437   0.095   0.070
    1UNL     O5   11   0.507  -0.004   0.134
    1UNL     C7   12   0.477  -0.138   0.089
    1UNL     C8   13   0.332  -0.176   0.123
    1UNL     O6   14   0.299  -0.311   0.114
    1UNL     C9   15   0.517  -0.154  -0.059
    1UNL     O7   16   0.473  -0.284  -0.110
    1UNL    C10   17   0.456  -0.045  -0.144
    1UNL     O8   18   0.498  -0.051  -0.279
    1UNL    C11   19   0.482   0.092  -0.083
    1UNL     O9   20   0.626   0.123  -0.100
    1UNL    C12   21   0.081   0.181   0.082
    1UNL    C13   22  -0.011   0.302   0.041
    1UNL    O10   23   0.067   0.421   0.052
    1UNL    C14   24  -0.135   0.314   0.123
    1UNL     N1   25  -0.245   0.229   0.083
    1UNL    C15   26  -0.367   0.267   0.165
    1UNL    C16   27  -0.491   0.217   0.094
    1UNL    C17   28  -0.477   0.064   0.074
    1UNL    C18   29  -0.353   0.009   0.075
    1UNL     N2   30  -0.358  -0.125   0.044
    1UNL    C19   31  -0.493  -0.153   0.016
    1UNL    C20   32  -0.549  -0.276  -0.026
    1UNL    C21   33  -0.682  -0.275  -0.054
    1UNL    C22   34  -0.759  -0.157  -0.050
    1UNL    C23   35  -0.707  -0.041   0.000
    1UNL    C24   36  -0.567  -0.034   0.022
    1UNL    C25   37  -0.219   0.081   0.089
    1UNL    C26   38  -0.115   0.032  -0.011
    1UNL    C27   39   0.027   0.039   0.032
    1UNL     H1   40   0.043  -0.395  -0.081
    1UNL     H2   41   0.003  -0.325  -0.249
    1UNL     H3   42  -0.132  -0.367  -0.133
    1UNL     H4   43   0.225   0.036  -0.251
    1UNL     H5   44   0.268   0.274   0.067
    1UNL     H6   45   0.460   0.190   0.116
    1UNL     H7   46   0.535  -0.197   0.160
    1UNL     H8   47   0.259  -0.114   0.072
    1UNL     H9   48   0.307  -0.141   0.225
    1UNL    H10   49   0.278  -0.333   0.020
    1UNL    H11   50   0.629  -0.161  -0.078
    1UNL    H12   51   0.383  -0.267  -0.146
    1UNL    H13   52   0.346  -0.076  -0.149
    1UNL    H14   53   0.589  -0.017  -0.276
    1UNL    H15   54   0.434   0.168  -0.141
    1UNL    H16   55   0.686   0.072  -0.040
    1UNL    H17   56   0.075   0.177   0.190
    1UNL    H18   57  -0.034   0.289  -0.067
    1UNL    H19   58   0.134   0.433  -0.016
    1UNL    H20   59  -0.106   0.313   0.229
    1UNL    H21   60  -0.171   0.416   0.112
    1UNL    H22   61  -0.375   0.377   0.163
    1UNL    H23   62  -0.362   0.231   0.263
    1UNL    H24   63  -0.489   0.248  -0.010
    1UNL    H25   64  -0.585   0.249   0.139
    1UNL    H26   65  -0.285  -0.195   0.052
    1UNL    H27   66  -0.483  -0.359  -0.050
    1UNL    H28   67  -0.720  -0.366  -0.106
    1UNL    H29   68  -0.873  -0.164  -0.068
    1UNL    H30   69  -0.761   0.043   0.035
    1UNL    H31   70  -0.182   0.066   0.194
    1UNL    H32   71  -0.127   0.094  -0.099
    1UNL    H33   72  -0.142  -0.072  -0.043
    1UNL    H34   73   0.052  -0.032   0.112
   0.00000   0.00000   0.00000   0.00000   0.00000   0.00000   0.00000   0.00000   0.00000
Generated with MDTraj, t= 55.0
 73
    1UNL     C1    1   0.007  -0.351  -0.120
    1UNL     O1    2  -0.013  -0.223  -0.081
    1UNL     C2    3   0.094  -0.150  -0.129
    1UNL     O2    4   0.175  -0.195  -0.210
    1UNL     C3    5   0.096  -0.010  -0.094
    1UNL     C4    6   0.185   0.073  -0.159
    1UNL     O3    7   0.240   0.192  -0.098
    1UNL     C5    8   0.227   0.182   0.040
    1UNL     O4    9   0.311   0.079   0.101
    1UNL     C6   10   0.451   0.089   0.076
    1UNL     O5   11   0.530  -0.023   0.138
    1UNL     C7   12   0.479  -0.153   0.092
    1UNL     C8   13   0.338  -0.172   0.145
    1UNL     O6   14   0.274  -0.290   0.102
    1UNL     C9   15   0.501  -0.168  -0.064
    1UNL     O7   16   0.442  -0.281  -0.124
    1UNL    C10   17   0.471  -0.044  -0.148
    1UNL     O8   18   0.543  -0.044  -0.271
    1UNL    C11   19   0.493   0.092  -0.073
    1UNL     O9   20   0.628   0.143  -0.083
    1UNL    C12   21   0.074   0.173   0.073
    1UNL    C13   22  -0.016   0.293   0.014
    1UNL    O10   23   0.051   0.413  -0.004
    1UNL    C14   24  -0.134   0.318   0.109
    1UNL     N1   25  -0.255   0.230   0.092
    1UNL    C15   26  -0.375   0.282   0.161
    1UNL    C16   27  -0.506   0.205   0.113
    1UNL    C17   28  -0.474   0.058   0.082
    1UNL    C18   29  -0.348  -0.003   0.089
    1UNL     N2   30  -0.356  -0.127   0.029
    1UNL    C19   31  -0.489  -0.155   0.004
    1UNL    C20   32  -0.555  -0.265  -0.040
    1UNL    C21   33  -0.687  -0.265  -0.064
    1UNL    C22   34  -0.760  -0.145  -0.032
    1UNL    C23   35  -0.701  -0.036   0.019
    1UNL    C24   36  -0.562  -0.041   0.035
    1UNL    C25   37  -0.226   0.079   0.102
    1UNL    C26   38  -0.129   0.034  -0.008
    1UNL    C27   39   0.018   0.039   0.026
    1UNL     H1   40   0.109  -0.380  -0.098
    1UNL     H2   41  -0.019  -0.358  -0.232
    1UNL     H3   42  -0.064  -0.407  -0.067
    1UNL     H4   43   0.227   0.031  -0.252
    1UNL     H5   44   0.267   0.275   0.073
    1UNL     H6   45   0.476   0.184   0.122
    1UNL     H7   46   0.544  -0.226   0.147
    1UNL     H8   47   0.273  -0.092   0.117
    1UNL     H9   48   0.317  -0.171   0.254
    1UNL    H10   49   0.300  -0.308   0.009
    1UNL    H11   50   0.607  -0.191  -0.090
    1UNL    H12   51   0.352  -0.266  -0.163
    1UNL    H13   52   0.369  -0.054  -0.186
    1UNL    H14   53   0.632  -0.005  -0.247
    1UNL    H15   54   0.424   0.161  -0.115
    1UNL    H16   55   0.678   0.083  -0.029
    1UNL    H17   56   0.065   0.178   0.182
    1UNL    H18   57  -0.057   0.274  -0.088
    1UNL    H19   58   0.141   0.397  -0.051
    1UNL    H20   59  -0.101   0.326   0.213
    1UNL    H21   60  -0.161   0.422   0.094
    1UNL    H22   61  -0.390   0.389   0.139
    1UNL    H23   62  -0.364   0.276   0.265
    1UNL    H24   63  -0.556   0.258   0.032
    1UNL    H25   64  -0.570   0.190   0.201
    1UNL    H26   65  -0.285  -0.194   0.004
    1UNL    H27   66  -0.496  -0.352  -0.052
    1UNL    H28   67  -0.743  -0.351  -0.090
    1UNL    H29   68  -0.859  -0.149  -0.056
    1UNL    H30   69  -0.759   0.047   0.051
    1UNL    H31   70  -0.177   0.063   0.202
    1UNL    H32   71  -0.143   0.092  -0.097
    1UNL    H33   72  -0.140  -0.078  -0.024
    1UNL    H34   73   0.059  -0.027   0.107
   0.00000   0.00000   0.00000   0.00000   0.00000   0.00000   0.00000   0.00000   0.00000
Generated with MDTraj, t= 56.0
 73
    1UNL     C1    1   0.020  -0.358  -0.123
    1UNL     O1    2   0.012  -0.226  -0.067
    1UNL     C2    3   0.098  -0.147  -0.141
    1UNL     O2    4   0.163  -0.195  -0.237
    1UNL     C3    5   0.091  -0.004  -0.107
    1UNL     C4    6   0.183   0.075  -0.172
    1UNL     O3    7   0.227   0.196  -0.122
    1UNL     C5    8   0.217   0.196   0.020
    1UNL     O4    9   0.296   0.092   0.079
    1UNL     C6   10   0.431   0.095   0.075
    1UNL     O5   11   0.493  -0.017   0.149
    1UNL     C7   12   0.451  -0.139   0.097
    1UNL     C8   13   0.308  -0.183   0.115
    1UNL     O6   14   0.311  -0.326   0.102
    1UNL     C9   15   0.498  -0.155  -0.050
    1UNL     O7   16   0.447  -0.270  -0.111
    1UNL    C10   17   0.478  -0.030  -0.142
    1UNL     O8   18   0.556  -0.036  -0.259
    1UNL    C11   19   0.499   0.101  -0.058
    1UNL     O9   20   0.642   0.119  -0.043
    1UNL    C12   21   0.074   0.177   0.060
    1UNL    C13   22  -0.002   0.300   0.001
    1UNL    O10   23   0.087   0.417  -0.002
    1UNL    C14   24  -0.117   0.317   0.105
    1UNL     N1   25  -0.239   0.224   0.093
    1UNL    C15   26  -0.359   0.268   0.164
    1UNL    C16   27  -0.496   0.204   0.125
    1UNL    C17   28  -0.476   0.059   0.087
    1UNL    C18   29  -0.350   0.001   0.073
    1UNL     N2   30  -0.362  -0.134   0.029
    1UNL    C19   31  -0.498  -0.161   0.020
    1UNL    C20   32  -0.571  -0.273  -0.033
    1UNL    C21   33  -0.705  -0.256  -0.066
    1UNL    C22   34  -0.775  -0.145  -0.025
    1UNL    C23   35  -0.709  -0.040   0.037
    1UNL    C24   36  -0.568  -0.047   0.062
    1UNL    C25   37  -0.225   0.075   0.098
    1UNL    C26   38  -0.131   0.033  -0.012
    1UNL    C27   39   0.025   0.036   0.017
    1UNL     H1   40   0.109  -0.404  -0.092
    1UNL     H2   41   0.017  -0.357  -0.237
    1UNL     H3   42  -0.063  -0.415  -0.097
    1UNL     H4   43   0.224   0.037  -0.266
    1UNL     H5   44   0.259   0.290   0.054
    1UNL     H6   45   0.467   0.176   0.139
    1UNL     H7   46   0.514  -0.206   0.166
    1UNL     H8   47   0.241  -0.143   0.043
    1UNL     H9   48   0.255  -0.149   0.205
    1UNL    H10   49   0.367  -0.349   0.025
    1UNL    H11   50   0.605  -0.174  -0.052
    1UNL    H12   51   0.369  -0.237  -0.167
    1UNL    H13   52   0.380  -0.039  -0.176
    1UNL    H14   53   0.645  -0.024  -0.227
    1UNL    H15   54   0.466   0.188  -0.110
    1UNL    H16   55   0.685   0.083   0.038
    1UNL    H17   56   0.059   0.179   0.170
    1UNL    H18   57  -0.035   0.286  -0.107
    1UNL    H19   58   0.131   0.412  -0.088
    1UNL    H20   59  -0.080   0.334   0.206
    1UNL    H21   60  -0.151   0.418   0.085
    1UNL    H22   61  -0.368   0.378   0.162
    1UNL    H23   62  -0.345   0.249   0.265
    1UNL    H24   63  -0.534   0.257   0.039
    1UNL    H25   64  -0.562   0.219   0.212
    1UNL    H26   65  -0.292  -0.201   0.054
    1UNL    H27   66  -0.530  -0.376  -0.037
    1UNL    H28   67  -0.755  -0.342  -0.109
    1UNL    H29   68  -0.884  -0.149  -0.047
    1UNL    H30   69  -0.762   0.061   0.049
    1UNL    H31   70  -0.190   0.042   0.201
    1UNL    H32   71  -0.157   0.096  -0.093
    1UNL    H33   72  -0.151  -0.073  -0.045
    1UNL    H34   73   0.046  -0.043   0.098
   0.00000   0.00000   0.00000   0.00000   0.00000   0.00000   0.00000   0.00000   0.00000
Generated with MDTraj, t= 57.0
 73
    1UNL     C1    1   0.043  -0.348  -0.109
    1UNL     O1    2   0.005  -0.215  -0.122
    1UNL     C2    3   0.110  -0.147  -0.164
    1UNL     O2    4   0.206  -0.204  -0.219
    1UNL     C3    5   0.097  -0.001  -0.141
    1UNL     C4    6   0.185   0.085  -0.194
    1UNL     O3    7   0.222   0.197  -0.133
    1UNL     C5    8   0.216   0.180   0.014
    1UNL     O4    9   0.285   0.070   0.069
    1UNL     C6   10   0.423   0.085   0.093
    1UNL     O5   11   0.489  -0.032   0.159
    1UNL     C7   12   0.466  -0.156   0.086
    1UNL     C8   13   0.322  -0.202   0.122
    1UNL     O6   14   0.303  -0.340   0.134
    1UNL     C9   15   0.516  -0.166  -0.059
    1UNL     O7   16   0.463  -0.284  -0.119
    1UNL    C10   17   0.483  -0.026  -0.131
    1UNL     O8   18   0.554   0.007  -0.252
    1UNL    C11   19   0.505   0.094  -0.040
    1UNL     O9   20   0.641   0.119  -0.018
    1UNL    C12   21   0.068   0.177   0.044
    1UNL    C13   22  -0.017   0.302   0.005
    1UNL    O10   23   0.058   0.420   0.002
    1UNL    C14   24  -0.130   0.309   0.103
    1UNL     N1   25  -0.248   0.232   0.082
    1UNL    C15   26  -0.361   0.258   0.180
    1UNL    C16   27  -0.497   0.206   0.126
    1UNL    C17   28  -0.474   0.071   0.066
    1UNL    C18   29  -0.358   0.006   0.073
    1UNL     N2   30  -0.367  -0.130   0.044
    1UNL    C19   31  -0.504  -0.154   0.022
    1UNL    C20   32  -0.571  -0.269  -0.010
    1UNL    C21   33  -0.708  -0.259  -0.021
    1UNL    C22   34  -0.772  -0.142   0.007
    1UNL    C23   35  -0.709  -0.025   0.048
    1UNL    C24   36  -0.569  -0.029   0.047
    1UNL    C25   37  -0.225   0.083   0.082
    1UNL    C26   38  -0.141   0.034  -0.042
    1UNL    C27   39   0.019   0.044  -0.026
    1UNL     H1   40   0.138  -0.354  -0.068
    1UNL     H2   41   0.036  -0.414  -0.202
    1UNL     H3   42  -0.030  -0.387  -0.045
    1UNL     H4   43   0.248   0.057  -0.277
    1UNL     H5   44   0.257   0.264   0.076
    1UNL     H6   45   0.445   0.175   0.152
    1UNL     H7   46   0.536  -0.227   0.144
    1UNL     H8   47   0.250  -0.147   0.064
    1UNL     H9   48   0.296  -0.153   0.218
    1UNL    H10   49   0.341  -0.382   0.053
    1UNL    H11   50   0.621  -0.173  -0.070
    1UNL    H12   51   0.372  -0.269  -0.151
    1UNL    H13   52   0.383  -0.037  -0.158
    1UNL    H14   53   0.643   0.040  -0.223
    1UNL    H15   54   0.465   0.181  -0.092
    1UNL    H16   55   0.666   0.076   0.068
    1UNL    H17   56   0.050   0.164   0.154
    1UNL    H18   57  -0.057   0.305  -0.100
    1UNL    H19   58   0.118   0.420  -0.074
    1UNL    H20   59  -0.084   0.280   0.198
    1UNL    H21   60  -0.154   0.412   0.127
    1UNL    H22   61  -0.375   0.363   0.216
    1UNL    H23   62  -0.333   0.218   0.273
    1UNL    H24   63  -0.522   0.278   0.052
    1UNL    H25   64  -0.579   0.207   0.201
    1UNL    H26   65  -0.300  -0.185  -0.005
    1UNL    H27   66  -0.525  -0.363  -0.019
    1UNL    H28   67  -0.763  -0.346  -0.059
    1UNL    H29   68  -0.879  -0.126   0.002
    1UNL    H30   69  -0.767   0.058   0.054
    1UNL    H31   70  -0.173   0.042   0.175
    1UNL    H32   71  -0.176   0.093  -0.123
    1UNL    H33   72  -0.175  -0.066  -0.076
    1UNL    H34   73   0.037  -0.035   0.056
   0.00000   0.00000   0.00000   0.00000   0.00000   0.00000   0.00000   0.00000   0.00000
Generated with MDTraj, t= 58.0
 73
    1UNL     C1    1   0.034  -0.352  -0.156
    1UNL     O1    2   0.006  -0.219  -0.123
    1UNL     C2    3   0.110  -0.147  -0.168
    1UNL     O2    4   0.202  -0.192  -0.237
    1UNL     C3    5   0.101  -0.006  -0.132
    1UNL     C4    6   0.195   0.081  -0.177
    1UNL     O3    7   0.235   0.192  -0.113
    1UNL     C5    8   0.216   0.181   0.028
    1UNL     O4    9   0.285   0.073   0.080
    1UNL     C6   10   0.426   0.084   0.090
    1UNL     O5   11   0.483  -0.020   0.169
    1UNL     C7   12   0.472  -0.149   0.112
    1UNL     C8   13   0.323  -0.208   0.116
    1UNL     O6   14   0.309  -0.341   0.072
    1UNL     C9   15   0.531  -0.162  -0.029
    1UNL     O7   16   0.487  -0.281  -0.108
    1UNL    C10   17   0.486  -0.034  -0.119
    1UNL     O8   18   0.560  -0.022  -0.241
    1UNL    C11   19   0.508   0.097  -0.044
    1UNL     O9   20   0.645   0.144  -0.036
    1UNL    C12   21   0.061   0.164   0.047
    1UNL    C13   22  -0.004   0.304   0.012
    1UNL    O10   23   0.091   0.413   0.018
    1UNL    C14   24  -0.135   0.326   0.095
    1UNL     N1   25  -0.256   0.238   0.070
    1UNL    C15   26  -0.375   0.264   0.158
    1UNL    C16   27  -0.503   0.205   0.097
    1UNL    C17   28  -0.483   0.062   0.073
    1UNL    C18   29  -0.358   0.010   0.049
    1UNL     N2   30  -0.375  -0.122   0.021
    1UNL    C19   31  -0.510  -0.155   0.025
    1UNL    C20   32  -0.584  -0.274   0.014
    1UNL    C21   33  -0.725  -0.264   0.018
    1UNL    C22   34  -0.793  -0.148   0.049
    1UNL    C23   35  -0.719  -0.034   0.064
    1UNL    C24   36  -0.583  -0.035   0.046
    1UNL    C25   37  -0.231   0.087   0.067
    1UNL    C26   38  -0.136   0.049  -0.060
    1UNL    C27   39   0.011   0.031  -0.016
    1UNL     H1   40   0.077  -0.398  -0.072
    1UNL     H2   41   0.103  -0.377  -0.246
    1UNL     H3   42  -0.060  -0.400  -0.177
    1UNL     H4   43   0.250   0.055  -0.265
    1UNL     H5   44   0.242   0.265   0.103
    1UNL     H6   45   0.453   0.176   0.147
    1UNL     H7   46   0.529  -0.213   0.183
    1UNL     H8   47   0.261  -0.141   0.060
    1UNL     H9   48   0.281  -0.192   0.218
    1UNL    H10   49   0.395  -0.384   0.052
    1UNL    H11   50   0.636  -0.170  -0.032
    1UNL    H12   51   0.397  -0.266  -0.139
    1UNL    H13   52   0.389  -0.062  -0.147
    1UNL    H14   53   0.654   0.002  -0.217
    1UNL    H15   54   0.449   0.172  -0.100
    1UNL    H16   55   0.678   0.116   0.049
    1UNL    H17   56   0.043   0.159   0.156
    1UNL    H18   57  -0.032   0.315  -0.096
    1UNL    H19   58   0.165   0.384  -0.048
    1UNL    H20   59  -0.109   0.314   0.199
    1UNL    H21   60  -0.160   0.432   0.088
    1UNL    H22   61  -0.380   0.375   0.171
    1UNL    H23   62  -0.363   0.244   0.260
    1UNL    H24   63  -0.531   0.259   0.009
    1UNL    H25   64  -0.589   0.225   0.164
    1UNL    H26   65  -0.297  -0.182   0.035
    1UNL    H27   66  -0.544  -0.369  -0.029
    1UNL    H28   67  -0.785  -0.349   0.003
    1UNL    H29   68  -0.898  -0.155   0.048
    1UNL    H30   69  -0.768   0.059   0.104
    1UNL    H31   70  -0.170   0.054   0.156
    1UNL    H32   71  -0.154   0.130  -0.130
    1UNL    H33   72  -0.175  -0.037  -0.114
    1UNL    H34   73   0.014  -0.045   0.072
   0.00000   0.00000   0.00000   0.00000   0.00000   0.00000   0.00000   0.00000   0.00000
Generated with MDTraj, t= 59.0
 73
    1UNL     C1    1   0.020  -0.339  -0.201
    1UNL     O1    2  -0.000  -0.215  -0.139
    1UNL     C2    3   0.113  -0.145  -0.160
    1UNL     O2    4   0.209  -0.188  -0.227
    1UNL     C3    5   0.112  -0.008  -0.108
    1UNL     C4    6   0.205   0.077  -0.163
    1UNL     O3    7   0.253   0.187  -0.093
    1UNL     C5    8   0.226   0.181   0.046
    1UNL     O4    9   0.280   0.070   0.112
    1UNL     C6   10   0.421   0.081   0.098
    1UNL     O5   11   0.493  -0.027   0.163
    1UNL     C7   12   0.471  -0.152   0.097
    1UNL     C8   13   0.315  -0.193   0.109
    1UNL     O6   14   0.295  -0.326   0.067
    1UNL     C9   15   0.530  -0.163  -0.046
    1UNL     O7   16   0.494  -0.277  -0.119
    1UNL    C10   17   0.487  -0.032  -0.126
    1UNL     O8   18   0.568  -0.014  -0.236
    1UNL    C11   19   0.494   0.095  -0.042
    1UNL     O9   20   0.630   0.132  -0.033
    1UNL    C12   21   0.068   0.167   0.067
    1UNL    C13   22  -0.002   0.292   0.021
    1UNL    O10   23   0.084   0.409   0.030
    1UNL    C14   24  -0.136   0.314   0.102
    1UNL     N1   25  -0.250   0.237   0.040
    1UNL    C15   26  -0.377   0.292   0.096
    1UNL    C16   27  -0.507   0.215   0.060
    1UNL    C17   28  -0.484   0.068   0.053
    1UNL    C18   29  -0.362   0.012   0.026
    1UNL     N2   30  -0.385  -0.120   0.006
    1UNL    C19   31  -0.519  -0.151   0.028
    1UNL    C20   32  -0.584  -0.278   0.034
    1UNL    C21   33  -0.712  -0.280   0.066
    1UNL    C22   34  -0.786  -0.157   0.075
    1UNL    C23   35  -0.728  -0.039   0.088
    1UNL    C24   36  -0.585  -0.033   0.055
    1UNL    C25   37  -0.233   0.088   0.049
    1UNL    C26   38  -0.128   0.030  -0.055
    1UNL    C27   39   0.019   0.032   0.003
    1UNL     H1   40   0.119  -0.375  -0.177
    1UNL     H2   41   0.013  -0.342  -0.317
    1UNL     H3   42  -0.053  -0.414  -0.164
    1UNL     H4   43   0.251   0.046  -0.258
    1UNL     H5   44   0.276   0.270   0.104
    1UNL     H6   45   0.455   0.167   0.160
    1UNL     H7   46   0.522  -0.219   0.165
    1UNL     H8   47   0.264  -0.131   0.038
    1UNL     H9   48   0.263  -0.170   0.206
    1UNL    H10   49   0.379  -0.373   0.052
    1UNL    H11   50   0.634  -0.158  -0.033
    1UNL    H12   51   0.400  -0.258  -0.153
    1UNL    H13   52   0.393  -0.060  -0.160
    1UNL    H14   53   0.659  -0.002  -0.206
    1UNL    H15   54   0.442   0.173  -0.101
    1UNL    H16   55   0.671   0.121   0.057
    1UNL    H17   56   0.060   0.150   0.175
    1UNL    H18   57  -0.039   0.279  -0.081
    1UNL    H19   58   0.159   0.391  -0.035
    1UNL    H20   59  -0.124   0.304   0.209
    1UNL    H21   60  -0.167   0.416   0.082
    1UNL    H22   61  -0.385   0.399   0.066
    1UNL    H23   62  -0.365   0.308   0.200
    1UNL    H24   63  -0.548   0.249  -0.032
    1UNL    H25   64  -0.589   0.236   0.132
    1UNL    H26   65  -0.310  -0.181  -0.024
    1UNL    H27   66  -0.527  -0.361   0.011
    1UNL    H28   67  -0.770  -0.372   0.077
    1UNL    H29   68  -0.897  -0.157   0.094
    1UNL    H30   69  -0.777   0.050   0.123
    1UNL    H31   70  -0.191   0.062   0.151
    1UNL    H32   71  -0.141   0.075  -0.155
    1UNL    H33   72  -0.148  -0.074  -0.071
    1UNL    H34   73   0.024  -0.041   0.094
   0.00000   0.00000   0.00000   0.00000   0.00000   0.00000   0.00000   0.00000   0.00000
Generated with MDTraj, t= 60.0
 73
    1UNL     C1    1   0.004  -0.321  -0.214
    1UNL     O1    2  -0.014  -0.198  -0.159
    1UNL     C2    3   0.100  -0.130  -0.174
    1UNL     O2    4   0.205  -0.168  -0.228
    1UNL     C3    5   0.105   0.005  -0.118
    1UNL     C4    6   0.196   0.095  -0.166
    1UNL     O3    7   0.252   0.195  -0.087
    1UNL     C5    8   0.222   0.166   0.044
    1UNL     O4    9   0.295   0.053   0.094
    1UNL     C6   10   0.436   0.063   0.110
    1UNL     O5   11   0.501  -0.056   0.172
    1UNL     C7   12   0.471  -0.172   0.092
    1UNL     C8   13   0.327  -0.206   0.121
    1UNL     O6   14   0.294  -0.340   0.099
    1UNL     C9   15   0.518  -0.165  -0.055
    1UNL     O7   16   0.476  -0.273  -0.137
    1UNL    C10   17   0.486  -0.023  -0.125
    1UNL     O8   18   0.570  -0.001  -0.230
    1UNL    C11   19   0.500   0.095  -0.025
    1UNL     O9   20   0.634   0.130  -0.010
    1UNL    C12   21   0.062   0.169   0.071
    1UNL    C13   22  -0.014   0.293   0.018
    1UNL    O10   23   0.071   0.409   0.027
    1UNL    C14   24  -0.154   0.326   0.078
    1UNL     N1   25  -0.254   0.239   0.026
    1UNL    C15   26  -0.382   0.285   0.086
    1UNL    C16   27  -0.506   0.216   0.024
    1UNL    C17   28  -0.482   0.070   0.030
    1UNL    C18   29  -0.356   0.013   0.043
    1UNL     N2   30  -0.366  -0.129   0.054
    1UNL    C19   31  -0.501  -0.164   0.053
    1UNL    C20   32  -0.569  -0.284   0.068
    1UNL    C21   33  -0.702  -0.280   0.083
    1UNL    C22   34  -0.774  -0.155   0.086
    1UNL    C23   35  -0.716  -0.036   0.059
    1UNL    C24   36  -0.575  -0.038   0.043
    1UNL    C25   37  -0.232   0.089   0.044
    1UNL    C26   38  -0.125   0.029  -0.050
    1UNL    C27   39   0.023   0.037  -0.007
    1UNL     H1   40   0.104  -0.358  -0.191
    1UNL     H2   41  -0.013  -0.332  -0.326
    1UNL     H3   42  -0.073  -0.389  -0.164
    1UNL     H4   43   0.247   0.070  -0.261
    1UNL     H5   44   0.272   0.256   0.096
    1UNL     H6   45   0.455   0.143   0.186
    1UNL     H7   46   0.534  -0.246   0.135
    1UNL     H8   47   0.255  -0.141   0.077
    1UNL     H9   48   0.313  -0.197   0.232
    1UNL    H10   49   0.334  -0.362   0.010
    1UNL    H11   50   0.625  -0.171  -0.059
    1UNL    H12   51   0.390  -0.258  -0.176
    1UNL    H13   52   0.387  -0.039  -0.164
    1UNL    H14   53   0.580   0.097  -0.245
    1UNL    H15   54   0.447   0.185  -0.066
    1UNL    H16   55   0.683   0.069   0.053
    1UNL    H17   56   0.038   0.141   0.175
    1UNL    H18   57  -0.049   0.282  -0.085
    1UNL    H19   58   0.152   0.403  -0.023
    1UNL    H20   59  -0.161   0.303   0.183
    1UNL    H21   60  -0.187   0.429   0.059
    1UNL    H22   61  -0.395   0.396   0.081
    1UNL    H23   62  -0.382   0.266   0.190
    1UNL    H24   63  -0.514   0.243  -0.078
    1UNL    H25   64  -0.603   0.243   0.070
    1UNL    H26   65  -0.291  -0.197   0.053
    1UNL    H27   66  -0.511  -0.377   0.082
    1UNL    H28   67  -0.762  -0.368   0.100
    1UNL    H29   68  -0.876  -0.155   0.114
    1UNL    H30   69  -0.759   0.061   0.048
    1UNL    H31   70  -0.197   0.076   0.150
    1UNL    H32   71  -0.134   0.084  -0.148
    1UNL    H33   72  -0.143  -0.072  -0.075
    1UNL    H34   73   0.043  -0.046   0.072
   0.00000   0.00000   0.00000   0.00000   0.00000   0.00000   0.00000   0.00000   0.00000
Generated with MDTraj, t= 61.0
 73
    1UNL     C1    1  -0.009  -0.318  -0.235
    1UNL     O1    2  -0.010  -0.195  -0.167
    1UNL     C2    3   0.105  -0.116  -0.198
    1UNL     O2    4   0.197  -0.150  -0.276
    1UNL     C3    5   0.110   0.016  -0.137
    1UNL     C4    6   0.212   0.101  -0.173
    1UNL     O3    7   0.251   0.208  -0.097
    1UNL     C5    8   0.218   0.175   0.043
    1UNL     O4    9   0.284   0.065   0.093
    1UNL     C6   10   0.420   0.070   0.117
    1UNL     O5   11   0.472  -0.046   0.180
    1UNL     C7   12   0.440  -0.168   0.112
    1UNL     C8   13   0.303  -0.232   0.107
    1UNL     O6   14   0.331  -0.369   0.078
    1UNL     C9   15   0.494  -0.159  -0.034
    1UNL     O7   16   0.439  -0.260  -0.128
    1UNL    C10   17   0.478  -0.020  -0.108
    1UNL     O8   18   0.565  -0.017  -0.215
    1UNL    C11   19   0.497   0.100  -0.016
    1UNL     O9   20   0.632   0.126  -0.004
    1UNL    C12   21   0.062   0.163   0.064
    1UNL    C13   22  -0.002   0.291   0.018
    1UNL    O10   23   0.091   0.406   0.016
    1UNL    C14   24  -0.125   0.334   0.084
    1UNL     N1   25  -0.238   0.242   0.057
    1UNL    C15   26  -0.381   0.294   0.070
    1UNL    C16   27  -0.490   0.207   0.004
    1UNL    C17   28  -0.466   0.060   0.024
    1UNL    C18   29  -0.345   0.007   0.063
    1UNL     N2   30  -0.359  -0.126   0.114
    1UNL    C19   31  -0.494  -0.158   0.104
    1UNL    C20   32  -0.562  -0.278   0.122
    1UNL    C21   33  -0.702  -0.286   0.095
    1UNL    C22   34  -0.776  -0.179   0.051
    1UNL    C23   35  -0.706  -0.063   0.011
    1UNL    C24   36  -0.569  -0.051   0.054
    1UNL    C25   37  -0.219   0.088   0.053
    1UNL    C26   38  -0.130   0.041  -0.061
    1UNL    C27   39   0.014   0.036  -0.020
    1UNL     H1   40   0.024  -0.396  -0.167
    1UNL     H2   41   0.056  -0.319  -0.324
    1UNL     H3   42  -0.114  -0.343  -0.272
    1UNL     H4   43   0.263   0.080  -0.267
    1UNL     H5   44   0.246   0.264   0.103
    1UNL     H6   45   0.436   0.156   0.186
    1UNL     H7   46   0.504  -0.238   0.158
    1UNL     H8   47   0.233  -0.194   0.036
    1UNL     H9   48   0.251  -0.233   0.205
    1UNL    H10   49   0.369  -0.381  -0.010
    1UNL    H11   50   0.603  -0.178  -0.048
    1UNL    H12   51   0.353  -0.224  -0.167
    1UNL    H13   52   0.377  -0.028  -0.154
    1UNL    H14   53   0.657  -0.033  -0.181
    1UNL    H15   54   0.446   0.188  -0.064
    1UNL    H16   55   0.660   0.072   0.071
    1UNL    H17   56   0.046   0.143   0.171
    1UNL    H18   57  -0.026   0.274  -0.088
    1UNL    H19   58   0.159   0.379  -0.055
    1UNL    H20   59  -0.106   0.349   0.189
    1UNL    H21   60  -0.154   0.429   0.039
    1UNL    H22   61  -0.387   0.396   0.024
    1UNL    H23   62  -0.408   0.306   0.172
    1UNL    H24   63  -0.485   0.221  -0.101
    1UNL    H25   64  -0.593   0.235   0.034
    1UNL    H26   65  -0.298  -0.178   0.177
    1UNL    H27   66  -0.513  -0.363   0.161
    1UNL    H28   67  -0.747  -0.379   0.116
    1UNL    H29   68  -0.881  -0.191   0.025
    1UNL    H30   69  -0.742   0.019  -0.056
    1UNL    H31   70  -0.165   0.073   0.149
    1UNL    H32   71  -0.137   0.108  -0.151
    1UNL    H33   72  -0.158  -0.055  -0.089
    1UNL    H34   73   0.025  -0.049   0.060
   0.00000   0.00000   0.00000   0.00000   0.00000   0.00000   0.00000   0.00000   0.00000
Generated with MDTraj, t= 62.0
 73
    1UNL     C1    1   0.012  -0.311  -0.263
    1UNL     O1    2  -0.013  -0.185  -0.207
    1UNL     C2    3   0.098  -0.107  -0.211
    1UNL     O2    4   0.201  -0.139  -0.270
    1UNL     C3    5   0.098   0.022  -0.139
    1UNL     C4    6   0.199   0.109  -0.171
    1UNL     O3    7   0.242   0.210  -0.097
    1UNL     C5    8   0.218   0.177   0.046
    1UNL     O4    9   0.271   0.050   0.086
    1UNL     C6   10   0.409   0.057   0.121
    1UNL     O5   11   0.483  -0.062   0.172
    1UNL     C7   12   0.452  -0.184   0.097
    1UNL     C8   13   0.306  -0.216   0.121
    1UNL     O6   14   0.277  -0.348   0.083
    1UNL     C9   15   0.502  -0.176  -0.054
    1UNL     O7   16   0.435  -0.270  -0.137
    1UNL    C10   17   0.477  -0.035  -0.111
    1UNL     O8   18   0.566  -0.003  -0.216
    1UNL    C11   19   0.493   0.083  -0.007
    1UNL     O9   20   0.628   0.095   0.037
    1UNL    C12   21   0.065   0.185   0.065
    1UNL    C13   22  -0.008   0.307   0.001
    1UNL    O10   23   0.069   0.435   0.007
    1UNL    C14   24  -0.138   0.338   0.073
    1UNL     N1   25  -0.243   0.238   0.039
    1UNL    C15   26  -0.382   0.291   0.040
    1UNL    C16   27  -0.474   0.197  -0.027
    1UNL    C17   28  -0.457   0.057   0.033
    1UNL    C18   29  -0.340   0.012   0.089
    1UNL     N2   30  -0.368  -0.106   0.155
    1UNL    C19   31  -0.492  -0.158   0.122
    1UNL    C20   32  -0.557  -0.277   0.144
    1UNL    C21   33  -0.687  -0.295   0.106
    1UNL    C22   34  -0.747  -0.194   0.032
    1UNL    C23   35  -0.682  -0.070   0.005
    1UNL    C24   36  -0.553  -0.053   0.051
    1UNL    C25   37  -0.212   0.089   0.081
    1UNL    C26   38  -0.118   0.020  -0.023
    1UNL    C27   39   0.026   0.045  -0.002
    1UNL     H1   40   0.094  -0.356  -0.209
    1UNL     H2   41   0.033  -0.304  -0.366
    1UNL     H3   42  -0.081  -0.375  -0.252
    1UNL     H4   43   0.254   0.090  -0.260
    1UNL     H5   44   0.259   0.259   0.102
    1UNL     H6   45   0.425   0.141   0.190
    1UNL     H7   46   0.509  -0.260   0.149
    1UNL     H8   47   0.249  -0.148   0.062
    1UNL     H9   48   0.272  -0.204   0.226
    1UNL    H10   49   0.336  -0.366   0.005
    1UNL    H11   50   0.616  -0.193  -0.050
    1UNL    H12   51   0.362  -0.225  -0.190
    1UNL    H13   52   0.370  -0.036  -0.146
    1UNL    H14   53   0.536   0.082  -0.252
    1UNL    H15   54   0.471   0.177  -0.069
    1UNL    H16   55   0.647   0.010   0.078
    1UNL    H17   56   0.055   0.185   0.174
    1UNL    H18   57  -0.016   0.295  -0.108
    1UNL    H19   58   0.145   0.420  -0.047
    1UNL    H20   59  -0.119   0.334   0.178
    1UNL    H21   60  -0.161   0.442   0.046
    1UNL    H22   61  -0.384   0.395  -0.001
    1UNL    H23   62  -0.399   0.293   0.148
    1UNL    H24   63  -0.467   0.196  -0.135
    1UNL    H25   64  -0.576   0.226   0.005
    1UNL    H26   65  -0.296  -0.174   0.185
    1UNL    H27   66  -0.511  -0.356   0.201
    1UNL    H28   67  -0.740  -0.392   0.126
    1UNL    H29   68  -0.846  -0.187  -0.013
    1UNL    H30   69  -0.726   0.003  -0.056
    1UNL    H31   70  -0.156   0.098   0.176
    1UNL    H32   71  -0.146   0.054  -0.125
    1UNL    H33   72  -0.135  -0.082  -0.013
    1UNL    H34   73   0.074  -0.026   0.078
   0.00000   0.00000   0.00000   0.00000   0.00000   0.00000   0.00000   0.00000   0.00000
Generated with MDTraj, t= 63.0
 73
    1UNL     C1    1  -0.016  -0.274  -0.280
    1UNL     O1    2  -0.008  -0.169  -0.185
    1UNL     C2    3   0.109  -0.107  -0.196
    1UNL     O2    4   0.204  -0.139  -0.266
    1UNL     C3    5   0.119   0.017  -0.114
    1UNL     C4    6   0.211   0.117  -0.150
    1UNL     O3    7   0.265   0.213  -0.067
    1UNL     C5    8   0.223   0.184   0.067
    1UNL     O4    9   0.285   0.069   0.123
    1UNL     C6   10   0.427   0.063   0.122
    1UNL     O5   11   0.461  -0.063   0.174
    1UNL     C7   12   0.427  -0.179   0.097
    1UNL     C8   13   0.277  -0.203   0.085
    1UNL     O6   14   0.235  -0.331   0.043
    1UNL     C9   15   0.492  -0.172  -0.046
    1UNL     O7   16   0.436  -0.280  -0.128
    1UNL    C10   17   0.464  -0.032  -0.105
    1UNL     O8   18   0.552  -0.018  -0.217
    1UNL    C11   19   0.500   0.085  -0.005
    1UNL     O9   20   0.643   0.105  -0.006
    1UNL    C12   21   0.069   0.174   0.072
    1UNL    C13   22   0.002   0.294   0.004
    1UNL    O10   23   0.089   0.412   0.001
    1UNL    C14   24  -0.138   0.332   0.062
    1UNL     N1   25  -0.242   0.232   0.015
    1UNL    C15   26  -0.385   0.288   0.010
    1UNL    C16   27  -0.480   0.179  -0.047
    1UNL    C17   28  -0.465   0.048   0.031
    1UNL    C18   29  -0.344   0.011   0.082
    1UNL     N2   30  -0.354  -0.108   0.147
    1UNL    C19   31  -0.488  -0.150   0.135
    1UNL    C20   32  -0.546  -0.277   0.169
    1UNL    C21   33  -0.669  -0.304   0.115
    1UNL    C22   34  -0.742  -0.207   0.039
    1UNL    C23   35  -0.688  -0.087   0.011
    1UNL    C24   36  -0.555  -0.061   0.050
    1UNL    C25   37  -0.217   0.096   0.073
    1UNL    C26   38  -0.127   0.031  -0.033
    1UNL    C27   39   0.025   0.038   0.006
    1UNL     H1   40   0.080  -0.323  -0.277
    1UNL     H2   41  -0.036  -0.237  -0.374
    1UNL     H3   42  -0.096  -0.346  -0.253
    1UNL     H4   43   0.268   0.121  -0.241
    1UNL     H5   44   0.258   0.273   0.112
    1UNL     H6   45   0.454   0.132   0.203
    1UNL     H7   46   0.465  -0.266   0.154
    1UNL     H8   47   0.243  -0.141   0.006
    1UNL     H9   48   0.227  -0.173   0.179
    1UNL    H10   49   0.302  -0.369  -0.017
    1UNL    H11   50   0.602  -0.199  -0.031
    1UNL    H12   51   0.367  -0.247  -0.186
    1UNL    H13   52   0.355  -0.028  -0.142
    1UNL    H14   53   0.637  -0.055  -0.191
    1UNL    H15   54   0.463   0.182  -0.056
    1UNL    H16   55   0.691   0.032   0.045
    1UNL    H17   56   0.031   0.168   0.175
    1UNL    H18   57  -0.017   0.274  -0.105
    1UNL    H19   58   0.187   0.392  -0.022
    1UNL    H20   59  -0.127   0.347   0.168
    1UNL    H21   60  -0.167   0.428   0.022
    1UNL    H22   61  -0.354   0.371  -0.058
    1UNL    H23   62  -0.407   0.327   0.110
    1UNL    H24   63  -0.456   0.153  -0.149
    1UNL    H25   64  -0.581   0.220  -0.045
    1UNL    H26   65  -0.273  -0.149   0.200
    1UNL    H27   66  -0.475  -0.350   0.210
    1UNL    H28   67  -0.711  -0.398   0.126
    1UNL    H29   68  -0.836  -0.242   0.010
    1UNL    H30   69  -0.739  -0.001  -0.040
    1UNL    H31   70  -0.166   0.096   0.171
    1UNL    H32   71  -0.154   0.089  -0.124
    1UNL    H33   72  -0.153  -0.070  -0.047
    1UNL    H34   73   0.052  -0.046   0.084
   0.00000   0.00000   0.00000   0.00000   0.00000   0.00000   0.00000   0.00000   0.00000
Generated with MDTraj, t= 64.0
 73
    1UNL     C1    1  -0.019  -0.268  -0.270
    1UNL     O1    2  -0.019  -0.152  -0.187
    1UNL     C2    3   0.106  -0.095  -0.194
    1UNL     O2    4   0.199  -0.139  -0.261
    1UNL     C3    5   0.112   0.023  -0.113
    1UNL     C4    6   0.203   0.119  -0.148
    1UNL     O3    7   0.266   0.215  -0.065
    1UNL     C5    8   0.226   0.195   0.065
    1UNL     O4    9   0.278   0.069   0.120
    1UNL     C6   10   0.423   0.057   0.122
    1UNL     O5   11   0.465  -0.069   0.175
    1UNL     C7   12   0.426  -0.190   0.096
    1UNL     C8   13   0.279  -0.216   0.107
    1UNL     O6   14   0.220  -0.320   0.035
    1UNL     C9   15   0.480  -0.181  -0.046
    1UNL     O7   16   0.432  -0.283  -0.128
    1UNL    C10   17   0.472  -0.039  -0.108
    1UNL     O8   18   0.567  -0.024  -0.214
    1UNL    C11   19   0.495   0.076  -0.011
    1UNL     O9   20   0.635   0.096   0.010
    1UNL    C12   21   0.068   0.184   0.071
    1UNL    C13   22   0.004   0.305  -0.001
    1UNL    O10   23   0.083   0.418   0.030
    1UNL    C14   24  -0.139   0.332   0.041
    1UNL     N1   25  -0.241   0.234   0.004
    1UNL    C15   26  -0.395   0.274   0.008
    1UNL    C16   27  -0.484   0.167  -0.053
    1UNL    C17   28  -0.457   0.035   0.011
    1UNL    C18   29  -0.336   0.013   0.079
    1UNL     N2   30  -0.338  -0.116   0.119
    1UNL    C19   31  -0.465  -0.167   0.106
    1UNL    C20   32  -0.530  -0.278   0.170
    1UNL    C21   33  -0.664  -0.291   0.148
    1UNL    C22   34  -0.739  -0.197   0.065
    1UNL    C23   35  -0.681  -0.088   0.020
    1UNL    C24   36  -0.541  -0.071   0.031
    1UNL    C25   37  -0.216   0.101   0.062
    1UNL    C26   38  -0.123   0.032  -0.029
    1UNL    C27   39   0.027   0.047   0.006
    1UNL     H1   40   0.032  -0.343  -0.210
    1UNL     H2   41   0.023  -0.251  -0.361
    1UNL     H3   42  -0.125  -0.299  -0.283
    1UNL     H4   43   0.242   0.129  -0.250
    1UNL     H5   44   0.267   0.276   0.118
    1UNL     H6   45   0.442   0.149   0.178
    1UNL     H7   46   0.475  -0.285   0.139
    1UNL     H8   47   0.230  -0.124   0.080
    1UNL     H9   48   0.260  -0.243   0.212
    1UNL    H10   49   0.275  -0.355  -0.039
    1UNL    H11   50   0.593  -0.194  -0.046
    1UNL    H12   51   0.354  -0.238  -0.174
    1UNL    H13   52   0.371  -0.017  -0.160
    1UNL    H14   53   0.556   0.062  -0.262
    1UNL    H15   54   0.463   0.177  -0.058
    1UNL    H16   55   0.673   0.007   0.037
    1UNL    H17   56   0.032   0.183   0.174
    1UNL    H18   57  -0.001   0.295  -0.113
    1UNL    H19   58   0.161   0.423  -0.031
    1UNL    H20   59  -0.139   0.334   0.149
    1UNL    H21   60  -0.167   0.434   0.016
    1UNL    H22   61  -0.395   0.374  -0.039
    1UNL    H23   62  -0.396   0.290   0.117
    1UNL    H24   63  -0.457   0.162  -0.159
    1UNL    H25   64  -0.589   0.192  -0.041
    1UNL    H26   65  -0.256  -0.149   0.175
    1UNL    H27   66  -0.465  -0.339   0.224
    1UNL    H28   67  -0.716  -0.375   0.201
    1UNL    H29   68  -0.846  -0.220   0.046
    1UNL    H30   69  -0.745  -0.015  -0.019
    1UNL    H31   70  -0.174   0.111   0.163
    1UNL    H32   71  -0.136   0.086  -0.124
    1UNL    H33   72  -0.151  -0.070  -0.044
    1UNL    H34   73   0.055  -0.033   0.086
   0.00000   0.00000   0.00000   0.00000   0.00000   0.00000   0.00000   0.00000   0.00000
Generated with MDTraj, t= 65.0
 73
    1UNL     C1    1   0.005  -0.284  -0.263
    1UNL     O1    2  -0.013  -0.155  -0.209
    1UNL     C2    3   0.107  -0.085  -0.218
    1UNL     O2    4   0.204  -0.126  -0.278
    1UNL     C3    5   0.120   0.037  -0.141
    1UNL     C4    6   0.218   0.123  -0.170
    1UNL     O3    7   0.262   0.214  -0.084
    1UNL     C5    8   0.222   0.192   0.051
    1UNL     O4    9   0.271   0.059   0.105
    1UNL     C6   10   0.411   0.053   0.123
    1UNL     O5   11   0.463  -0.068   0.170
    1UNL     C7   12   0.421  -0.184   0.097
    1UNL     C8   13   0.272  -0.211   0.099
    1UNL     O6   14   0.237  -0.349   0.095
    1UNL     C9   15   0.493  -0.183  -0.044
    1UNL     O7   16   0.431  -0.284  -0.125
    1UNL    C10   17   0.480  -0.041  -0.114
    1UNL     O8   18   0.573  -0.014  -0.219
    1UNL    C11   19   0.491   0.075  -0.007
    1UNL     O9   20   0.629   0.087   0.042
    1UNL    C12   21   0.066   0.184   0.054
    1UNL    C13   22  -0.002   0.312   0.007
    1UNL    O10   23   0.079   0.428   0.032
    1UNL    C14   24  -0.142   0.316   0.076
    1UNL     N1   25  -0.247   0.238   0.022
    1UNL    C15   26  -0.399   0.279   0.015
    1UNL    C16   27  -0.487   0.177  -0.047
    1UNL    C17   28  -0.465   0.042   0.023
    1UNL    C18   29  -0.340   0.009   0.071
    1UNL     N2   30  -0.342  -0.116   0.120
    1UNL    C19   31  -0.474  -0.164   0.111
    1UNL    C20   32  -0.530  -0.278   0.166
    1UNL    C21   33  -0.661  -0.299   0.139
    1UNL    C22   34  -0.742  -0.202   0.074
    1UNL    C23   35  -0.688  -0.076   0.045
    1UNL    C24   36  -0.549  -0.062   0.055
    1UNL    C25   37  -0.215   0.093   0.050
    1UNL    C26   38  -0.119   0.047  -0.055
    1UNL    C27   39   0.029   0.053  -0.024
    1UNL     H1   40   0.060  -0.342  -0.186
    1UNL     H2   41   0.048  -0.287  -0.358
    1UNL     H3   42  -0.100  -0.324  -0.267
    1UNL     H4   43   0.266   0.103  -0.268
    1UNL     H5   44   0.259   0.265   0.118
    1UNL     H6   45   0.428   0.130   0.199
    1UNL     H7   46   0.466  -0.275   0.154
    1UNL     H8   47   0.234  -0.168   0.006
    1UNL     H9   48   0.222  -0.164   0.183
    1UNL    H10   49   0.294  -0.386   0.023
    1UNL    H11   50   0.601  -0.211  -0.039
    1UNL    H12   51   0.363  -0.245  -0.186
    1UNL    H13   52   0.373  -0.028  -0.153
    1UNL    H14   53   0.659  -0.053  -0.190
    1UNL    H15   54   0.478   0.183  -0.044
    1UNL    H16   55   0.639   0.041   0.128
    1UNL    H17   56   0.051   0.180   0.162
    1UNL    H18   57  -0.008   0.307  -0.104
    1UNL    H19   58   0.168   0.399   0.011
    1UNL    H20   59  -0.124   0.290   0.180
    1UNL    H21   60  -0.178   0.418   0.088
    1UNL    H22   61  -0.406   0.385  -0.017
    1UNL    H23   62  -0.428   0.289   0.122
    1UNL    H24   63  -0.460   0.167  -0.153
    1UNL    H25   64  -0.588   0.214  -0.037
    1UNL    H26   65  -0.264  -0.177   0.154
    1UNL    H27   66  -0.483  -0.332   0.253
    1UNL    H28   67  -0.710  -0.387   0.180
    1UNL    H29   68  -0.847  -0.225   0.064
    1UNL    H30   69  -0.759  -0.002   0.002
    1UNL    H31   70  -0.165   0.092   0.147
    1UNL    H32   71  -0.130   0.112  -0.140
    1UNL    H33   72  -0.151  -0.051  -0.086
    1UNL    H34   73   0.054  -0.035   0.049
   0.00000   0.00000   0.00000   0.00000   0.00000   0.00000   0.00000   0.00000   0.00000
Generated with MDTraj, t= 66.0
 73
    1UNL     C1    1   0.037  -0.300  -0.297
    1UNL     O1    2   0.017  -0.187  -0.218
    1UNL     C2    3   0.122  -0.102  -0.226
    1UNL     O2    4   0.224  -0.127  -0.285
    1UNL     C3    5   0.115   0.031  -0.150
    1UNL     C4    6   0.210   0.123  -0.178
    1UNL     O3    7   0.251   0.215  -0.092
    1UNL     C5    8   0.221   0.185   0.041
    1UNL     O4    9   0.273   0.061   0.083
    1UNL     C6   10   0.413   0.064   0.118
    1UNL     O5   11   0.442  -0.060   0.188
    1UNL     C7   12   0.412  -0.177   0.112
    1UNL     C8   13   0.267  -0.222   0.104
    1UNL     O6   14   0.264  -0.364   0.088
    1UNL     C9   15   0.487  -0.167  -0.030
    1UNL     O7   16   0.428  -0.276  -0.106
    1UNL    C10   17   0.477  -0.037  -0.106
    1UNL     O8   18   0.582  -0.034  -0.207
    1UNL    C11   19   0.499   0.079  -0.006
    1UNL     O9   20   0.631   0.105   0.030
    1UNL    C12   21   0.068   0.171   0.051
    1UNL    C13   22   0.005   0.303   0.001
    1UNL    O10   23   0.083   0.420   0.030
    1UNL    C14   24  -0.139   0.328   0.064
    1UNL     N1   25  -0.255   0.238   0.024
    1UNL    C15   26  -0.392   0.279   0.070
    1UNL    C16   27  -0.503   0.196   0.008
    1UNL    C17   28  -0.471   0.053   0.042
    1UNL    C18   29  -0.343   0.010   0.062
    1UNL     N2   30  -0.341  -0.125   0.109
    1UNL    C19   31  -0.475  -0.162   0.112
    1UNL    C20   32  -0.536  -0.279   0.151
    1UNL    C21   33  -0.678  -0.291   0.127
    1UNL    C22   34  -0.754  -0.187   0.083
    1UNL    C23   35  -0.698  -0.067   0.048
    1UNL    C24   36  -0.557  -0.058   0.066
    1UNL    C25   37  -0.220   0.095   0.047
    1UNL    C26   38  -0.131   0.058  -0.071
    1UNL    C27   39   0.013   0.048  -0.031
    1UNL     H1   40   0.142  -0.340  -0.270
    1UNL     H2   41   0.027  -0.280  -0.401
    1UNL     H3   42  -0.038  -0.377  -0.266
    1UNL     H4   43   0.271   0.103  -0.266
    1UNL     H5   44   0.250   0.264   0.110
    1UNL     H6   45   0.416   0.138   0.201
    1UNL     H7   46   0.464  -0.266   0.168
    1UNL     H8   47   0.222  -0.176   0.016
    1UNL     H9   48   0.202  -0.197   0.188
    1UNL    H10   49   0.324  -0.382   0.014
    1UNL    H11   50   0.592  -0.195  -0.015
    1UNL    H12   51   0.366  -0.238  -0.167
    1UNL    H13   52   0.379  -0.027  -0.162
    1UNL    H14   53   0.659   0.014  -0.172
    1UNL    H15   54   0.472   0.171  -0.066
    1UNL    H16   55   0.654   0.025   0.077
    1UNL    H17   56   0.037   0.169   0.155
    1UNL    H18   57  -0.004   0.294  -0.108
    1UNL    H19   58   0.171   0.413  -0.019
    1UNL    H20   59  -0.142   0.339   0.173
    1UNL    H21   60  -0.162   0.429   0.034
    1UNL    H22   61  -0.406   0.385   0.041
    1UNL    H23   62  -0.406   0.295   0.179
    1UNL    H24   63  -0.505   0.211  -0.103
    1UNL    H25   64  -0.597   0.217   0.055
    1UNL    H26   65  -0.267  -0.174   0.164
    1UNL    H27   66  -0.484  -0.351   0.204
    1UNL    H28   67  -0.720  -0.380   0.159
    1UNL    H29   68  -0.856  -0.214   0.068
    1UNL    H30   69  -0.759   0.005   0.003
    1UNL    H31   70  -0.167   0.093   0.142
    1UNL    H32   71  -0.148   0.121  -0.153
    1UNL    H33   72  -0.168  -0.038  -0.107
    1UNL    H34   73   0.015  -0.054   0.027
   0.00000   0.00000   0.00000   0.00000   0.00000   0.00000   0.00000   0.00000   0.00000
Generated with MDTraj, t= 67.0
 73
    1UNL     C1    1   0.033  -0.309  -0.294
    1UNL     O1    2   0.018  -0.197  -0.213
    1UNL     C2    3   0.126  -0.108  -0.217
    1UNL     O2    4   0.229  -0.137  -0.275
    1UNL     C3    5   0.111   0.020  -0.151
    1UNL     C4    6   0.211   0.114  -0.169
    1UNL     O3    7   0.259   0.209  -0.081
    1UNL     C5    8   0.218   0.182   0.051
    1UNL     O4    9   0.272   0.051   0.105
    1UNL     C6   10   0.415   0.056   0.128
    1UNL     O5   11   0.470  -0.061   0.185
    1UNL     C7   12   0.437  -0.180   0.114
    1UNL     C8   13   0.293  -0.206   0.128
    1UNL     O6   14   0.247  -0.330   0.082
    1UNL     C9   15   0.490  -0.171  -0.036
    1UNL     O7   16   0.448  -0.278  -0.121
    1UNL    C10   17   0.482  -0.033  -0.110
    1UNL     O8   18   0.593  -0.016  -0.198
    1UNL    C11   19   0.485   0.082  -0.006
    1UNL     O9   20   0.622   0.106   0.023
    1UNL    C12   21   0.057   0.165   0.053
    1UNL    C13   22  -0.010   0.299  -0.012
    1UNL    O10   23   0.062   0.418  -0.018
    1UNL    C14   24  -0.141   0.331   0.061
    1UNL     N1   25  -0.252   0.231   0.025
    1UNL    C15   26  -0.374   0.286   0.092
    1UNL    C16   27  -0.505   0.211   0.039
    1UNL    C17   28  -0.475   0.068   0.046
    1UNL    C18   29  -0.348   0.011   0.052
    1UNL     N2   30  -0.356  -0.123   0.064
    1UNL    C19   31  -0.492  -0.162   0.079
    1UNL    C20   32  -0.551  -0.288   0.096
    1UNL    C21   33  -0.677  -0.295   0.126
    1UNL    C22   34  -0.753  -0.176   0.114
    1UNL    C23   35  -0.705  -0.052   0.084
    1UNL    C24   36  -0.568  -0.042   0.066
    1UNL    C25   37  -0.220   0.084   0.049
    1UNL    C26   38  -0.126   0.039  -0.068
    1UNL    C27   39   0.016   0.043  -0.031
    1UNL     H1   40   0.111  -0.376  -0.238
    1UNL     H2   41   0.069  -0.276  -0.391
    1UNL     H3   42  -0.061  -0.366  -0.303
    1UNL     H4   43   0.271   0.132  -0.256
    1UNL     H5   44   0.257   0.261   0.120
    1UNL     H6   45   0.430   0.133   0.207
    1UNL     H7   46   0.493  -0.263   0.172
    1UNL     H8   47   0.227  -0.130   0.088
    1UNL     H9   48   0.276  -0.206   0.238
    1UNL    H10   49   0.293  -0.358  -0.002
    1UNL    H11   50   0.595  -0.186  -0.013
    1UNL    H12   51   0.368  -0.248  -0.175
    1UNL    H13   52   0.382  -0.029  -0.161
    1UNL    H14   53   0.630   0.075  -0.193
    1UNL    H15   54   0.466   0.177  -0.061
    1UNL    H16   55   0.641   0.028   0.084
    1UNL    H17   56   0.016   0.149   0.151
    1UNL    H18   57  -0.034   0.266  -0.112
    1UNL    H19   58   0.150   0.407  -0.061
    1UNL    H20   59  -0.123   0.346   0.168
    1UNL    H21   60  -0.181   0.426   0.026
    1UNL    H22   61  -0.393   0.395   0.088
    1UNL    H23   62  -0.370   0.273   0.203
    1UNL    H24   63  -0.531   0.239  -0.066
    1UNL    H25   64  -0.586   0.213   0.112
    1UNL    H26   65  -0.287  -0.200   0.062
    1UNL    H27   66  -0.490  -0.380   0.077
    1UNL    H28   67  -0.725  -0.397   0.152
    1UNL    H29   68  -0.865  -0.179   0.117
    1UNL    H30   69  -0.773   0.033   0.065
    1UNL    H31   70  -0.171   0.063   0.144
    1UNL    H32   71  -0.142   0.092  -0.156
    1UNL    H33   72  -0.148  -0.063  -0.100
    1UNL    H34   73   0.032  -0.052   0.034
   0.00000   0.00000   0.00000   0.00000   0.00000   0.00000   0.00000   0.00000   0.00000
Generated with MDTraj, t= 68.0
 73
    1UNL     C1    1  -0.008  -0.315  -0.254
    1UNL     O1    2  -0.014  -0.185  -0.205
    1UNL     C2    3   0.110  -0.113  -0.207
    1UNL     O2    4   0.209  -0.155  -0.262
    1UNL     C3    5   0.122   0.013  -0.138
    1UNL     C4    6   0.216   0.110  -0.168
    1UNL     O3    7   0.265   0.199  -0.078
    1UNL     C5    8   0.222   0.180   0.050
    1UNL     O4    9   0.277   0.061   0.115
    1UNL     C6   10   0.422   0.074   0.127
    1UNL     O5   11   0.466  -0.044   0.186
    1UNL     C7   12   0.432  -0.163   0.116
    1UNL     C8   13   0.282  -0.196   0.095
    1UNL     O6   14   0.268  -0.332   0.066
    1UNL     C9   15   0.504  -0.164  -0.026
    1UNL     O7   16   0.455  -0.259  -0.117
    1UNL    C10   17   0.491  -0.025  -0.095
    1UNL     O8   18   0.573  -0.024  -0.206
    1UNL    C11   19   0.503   0.094  -0.001
    1UNL     O9   20   0.644   0.124   0.021
    1UNL    C12   21   0.069   0.172   0.057
    1UNL    C13   22   0.001   0.294  -0.020
    1UNL    O10   23   0.077   0.409  -0.022
    1UNL    C14   24  -0.133   0.321   0.045
    1UNL     N1   25  -0.243   0.221   0.026
    1UNL    C15   26  -0.359   0.282   0.099
    1UNL    C16   27  -0.491   0.208   0.070
    1UNL    C17   28  -0.471   0.060   0.069
    1UNL    C18   29  -0.353   0.001   0.024
    1UNL     N2   30  -0.372  -0.136   0.026
    1UNL    C19   31  -0.499  -0.164   0.058
    1UNL    C20   32  -0.573  -0.288   0.052
    1UNL    C21   33  -0.701  -0.291   0.098
    1UNL    C22   34  -0.772  -0.177   0.129
    1UNL    C23   35  -0.712  -0.058   0.115
    1UNL    C24   36  -0.573  -0.045   0.075
    1UNL    C25   37  -0.221   0.074   0.033
    1UNL    C26   38  -0.112   0.029  -0.067
    1UNL    C27   39   0.032   0.039  -0.017
    1UNL     H1   40   0.035  -0.385  -0.172
    1UNL     H2   41   0.056  -0.310  -0.342
    1UNL     H3   42  -0.104  -0.356  -0.282
    1UNL     H4   43   0.287   0.110  -0.248
    1UNL     H5   44   0.279   0.271   0.096
    1UNL     H6   45   0.442   0.152   0.205
    1UNL     H7   46   0.476  -0.245   0.177
    1UNL     H8   47   0.247  -0.132   0.013
    1UNL     H9   48   0.217  -0.170   0.181
    1UNL    H10   49   0.335  -0.367   0.004
    1UNL    H11   50   0.608  -0.190  -0.011
    1UNL    H12   51   0.374  -0.227  -0.171
    1UNL    H13   52   0.392  -0.016  -0.136
    1UNL    H14   53   0.661  -0.068  -0.194
    1UNL    H15   54   0.485   0.186  -0.060
    1UNL    H16   55   0.657   0.091   0.115
    1UNL    H17   56   0.040   0.175   0.159
    1UNL    H18   57  -0.014   0.262  -0.121
    1UNL    H19   58   0.170   0.395  -0.052
    1UNL    H20   59  -0.130   0.331   0.154
    1UNL    H21   60  -0.165   0.415   0.004
    1UNL    H22   61  -0.377   0.387   0.072
    1UNL    H23   62  -0.348   0.288   0.211
    1UNL    H24   63  -0.521   0.219  -0.038
    1UNL    H25   64  -0.567   0.231   0.142
    1UNL    H26   65  -0.307  -0.204  -0.017
    1UNL    H27   66  -0.519  -0.370   0.011
    1UNL    H28   67  -0.752  -0.379   0.099
    1UNL    H29   68  -0.869  -0.189   0.162
    1UNL    H30   69  -0.756   0.039   0.136
    1UNL    H31   70  -0.176   0.067   0.131
    1UNL    H32   71  -0.111   0.090  -0.152
    1UNL    H33   72  -0.134  -0.068  -0.110
    1UNL    H34   73   0.049  -0.044   0.059
   0.00000   0.00000   0.00000   0.00000   0.00000   0.00000   0.00000   0.00000   0.00000
Generated with MDTraj, t= 69.0
 73
    1UNL     C1    1  -0.016  -0.323  -0.249
    1UNL     O1    2  -0.016  -0.202  -0.187
    1UNL     C2    3   0.107  -0.140  -0.187
    1UNL     O2    4   0.212  -0.183  -0.227
    1UNL     C3    5   0.111   0.003  -0.132
    1UNL     C4    6   0.202   0.093  -0.182
    1UNL     O3    7   0.261   0.194  -0.114
    1UNL     C5    8   0.224   0.184   0.032
    1UNL     O4    9   0.278   0.053   0.083
    1UNL     C6   10   0.417   0.070   0.121
    1UNL     O5   11   0.462  -0.047   0.192
    1UNL     C7   12   0.452  -0.168   0.114
    1UNL     C8   13   0.301  -0.205   0.116
    1UNL     O6   14   0.273  -0.330   0.068
    1UNL     C9   15   0.518  -0.159  -0.033
    1UNL     O7   16   0.474  -0.265  -0.115
    1UNL    C10   17   0.482  -0.026  -0.106
    1UNL     O8   18   0.573  -0.004  -0.208
    1UNL    C11   19   0.497   0.093  -0.005
    1UNL     O9   20   0.638   0.116   0.030
    1UNL    C12   21   0.071   0.172   0.043
    1UNL    C13   22  -0.005   0.302  -0.017
    1UNL    O10   23   0.066   0.420  -0.012
    1UNL    C14   24  -0.141   0.340   0.046
    1UNL     N1   25  -0.246   0.235   0.054
    1UNL    C15   26  -0.366   0.280   0.128
    1UNL    C16   27  -0.494   0.205   0.114
    1UNL    C17   28  -0.469   0.065   0.068
    1UNL    C18   29  -0.346   0.006   0.046
    1UNL     N2   30  -0.364  -0.133   0.025
    1UNL    C19   31  -0.497  -0.162   0.045
    1UNL    C20   32  -0.563  -0.283   0.028
    1UNL    C21   33  -0.694  -0.289   0.064
    1UNL    C22   34  -0.767  -0.171   0.099
    1UNL    C23   35  -0.704  -0.050   0.094
    1UNL    C24   36  -0.568  -0.044   0.075
    1UNL    C25   37  -0.216   0.090   0.042
    1UNL    C26   38  -0.122   0.055  -0.075
    1UNL    C27   39   0.019   0.036  -0.025
    1UNL     H1   40   0.074  -0.386  -0.221
    1UNL     H2   41  -0.017  -0.299  -0.355
    1UNL     H3   42  -0.100  -0.379  -0.223
    1UNL     H4   43   0.241   0.067  -0.281
    1UNL     H5   44   0.268   0.282   0.075
    1UNL     H6   45   0.412   0.156   0.193
    1UNL     H7   46   0.511  -0.244   0.166
    1UNL     H8   47   0.241  -0.131   0.058
    1UNL     H9   48   0.268  -0.194   0.223
    1UNL    H10   49   0.328  -0.335  -0.014
    1UNL    H11   50   0.626  -0.164  -0.040
    1UNL    H12   51   0.403  -0.223  -0.164
    1UNL    H13   52   0.385  -0.031  -0.145
    1UNL    H14   53   0.634   0.070  -0.185
    1UNL    H15   54   0.466   0.186  -0.052
    1UNL    H16   55   0.642   0.078   0.119
    1UNL    H17   56   0.046   0.180   0.145
    1UNL    H18   57  -0.012   0.266  -0.119
    1UNL    H19   58   0.154   0.408  -0.060
    1UNL    H20   59  -0.119   0.370   0.150
    1UNL    H21   60  -0.189   0.423  -0.005
    1UNL    H22   61  -0.382   0.387   0.110
    1UNL    H23   62  -0.335   0.272   0.236
    1UNL    H24   63  -0.545   0.251   0.027
    1UNL    H25   64  -0.560   0.201   0.198
    1UNL    H26   65  -0.286  -0.197   0.025
    1UNL    H27   66  -0.519  -0.375  -0.004
    1UNL    H28   67  -0.751  -0.385   0.076
    1UNL    H29   68  -0.879  -0.176   0.107
    1UNL    H30   69  -0.755   0.041   0.109
    1UNL    H31   70  -0.162   0.068   0.131
    1UNL    H32   71  -0.121   0.125  -0.156
    1UNL    H33   72  -0.151  -0.037  -0.119
    1UNL    H34   73   0.014  -0.049   0.051
   0.00000   0.00000   0.00000   0.00000   0.00000   0.00000   0.00000   0.00000   0.00000
Generated with MDTraj, t= 70.0
 73
    1UNL     C1    1  -0.001  -0.347  -0.208
    1UNL     O1    2  -0.018  -0.214  -0.178
    1UNL     C2    3   0.103  -0.137  -0.190
    1UNL     O2    4   0.202  -0.179  -0.248
    1UNL     C3    5   0.100   0.001  -0.134
    1UNL     C4    6   0.195   0.081  -0.181
    1UNL     O3    7   0.247   0.185  -0.120
    1UNL     C5    8   0.216   0.186   0.020
    1UNL     O4    9   0.273   0.076   0.096
    1UNL     C6   10   0.415   0.072   0.116
    1UNL     O5   11   0.459  -0.040   0.187
    1UNL     C7   12   0.442  -0.162   0.111
    1UNL     C8   13   0.300  -0.212   0.104
    1UNL     O6   14   0.298  -0.356   0.088
    1UNL     C9   15   0.511  -0.160  -0.030
    1UNL     O7   16   0.478  -0.267  -0.116
    1UNL    C10   17   0.492  -0.025  -0.114
    1UNL     O8   18   0.592  -0.018  -0.217
    1UNL    C11   19   0.489   0.099  -0.017
    1UNL     O9   20   0.623   0.139   0.012
    1UNL    C12   21   0.069   0.168   0.046
    1UNL    C13   22  -0.010   0.290  -0.003
    1UNL    O10   23   0.070   0.400  -0.023
    1UNL    C14   24  -0.134   0.334   0.078
    1UNL     N1   25  -0.250   0.243   0.066
    1UNL    C15   26  -0.359   0.284   0.160
    1UNL    C16   27  -0.494   0.222   0.114
    1UNL    C17   28  -0.476   0.075   0.083
    1UNL    C18   29  -0.352   0.021   0.064
    1UNL     N2   30  -0.350  -0.115   0.053
    1UNL    C19   31  -0.486  -0.150   0.043
    1UNL    C20   32  -0.543  -0.273   0.010
    1UNL    C21   33  -0.682  -0.290   0.015
    1UNL    C22   34  -0.759  -0.182   0.050
    1UNL    C23   35  -0.705  -0.053   0.076
    1UNL    C24   36  -0.566  -0.038   0.071
    1UNL    C25   37  -0.225   0.095   0.055
    1UNL    C26   38  -0.136   0.056  -0.063
    1UNL    C27   39   0.012   0.041  -0.023
    1UNL     H1   40   0.075  -0.393  -0.141
    1UNL     H2   41   0.036  -0.344  -0.311
    1UNL     H3   42  -0.086  -0.403  -0.202
    1UNL     H4   43   0.232   0.059  -0.283
    1UNL     H5   44   0.243   0.290   0.053
    1UNL     H6   45   0.433   0.161   0.180
    1UNL     H7   46   0.501  -0.233   0.163
    1UNL     H8   47   0.241  -0.164   0.023
    1UNL     H9   48   0.246  -0.190   0.199
    1UNL    H10   49   0.346  -0.376   0.005
    1UNL    H11   50   0.619  -0.165  -0.010
    1UNL    H12   51   0.392  -0.257  -0.163
    1UNL    H13   52   0.395  -0.036  -0.150
    1UNL    H14   53   0.547  -0.033  -0.302
    1UNL    H15   54   0.449   0.187  -0.066
    1UNL    H16   55   0.656   0.083   0.081
    1UNL    H17   56   0.067   0.180   0.151
    1UNL    H18   57  -0.035   0.257  -0.105
    1UNL    H19   58   0.149   0.387  -0.075
    1UNL    H20   59  -0.115   0.339   0.187
    1UNL    H21   60  -0.152   0.433   0.039
    1UNL    H22   61  -0.357   0.392   0.165
    1UNL    H23   62  -0.326   0.258   0.265
    1UNL    H24   63  -0.541   0.267   0.023
    1UNL    H25   64  -0.566   0.236   0.192
    1UNL    H26   65  -0.267  -0.160   0.019
    1UNL    H27   66  -0.485  -0.365   0.024
    1UNL    H28   67  -0.733  -0.387   0.004
    1UNL    H29   68  -0.862  -0.177   0.061
    1UNL    H30   69  -0.775   0.034   0.086
    1UNL    H31   70  -0.175   0.058   0.141
    1UNL    H32   71  -0.149   0.130  -0.142
    1UNL    H33   72  -0.175  -0.033  -0.099
    1UNL    H34   73   0.015  -0.039   0.058
   0.00000   0.00000   0.00000   0.00000   0.00000   0.00000   0.00000   0.00000   0.00000
Generated with MDTraj, t= 71.0
 73
    1UNL     C1    1   0.009  -0.334  -0.163
    1UNL     O1    2  -0.009  -0.204  -0.132
    1UNL     C2    3   0.099  -0.124  -0.169
    1UNL     O2    4   0.194  -0.163  -0.229
    1UNL     C3    5   0.099   0.010  -0.126
    1UNL     C4    6   0.186   0.096  -0.185
    1UNL     O3    7   0.240   0.201  -0.118
    1UNL     C5    8   0.222   0.187   0.028
    1UNL     O4    9   0.283   0.076   0.094
    1UNL     C6   10   0.428   0.077   0.101
    1UNL     O5   11   0.477  -0.036   0.174
    1UNL     C7   12   0.453  -0.161   0.106
    1UNL     C8   13   0.308  -0.209   0.129
    1UNL     O6   14   0.290  -0.338   0.072
    1UNL     C9   15   0.507  -0.163  -0.044
    1UNL     O7   16   0.449  -0.270  -0.117
    1UNL    C10   17   0.484  -0.032  -0.123
    1UNL     O8   18   0.577  -0.026  -0.237
    1UNL    C11   19   0.490   0.094  -0.037
    1UNL     O9   20   0.623   0.134  -0.005
    1UNL    C12   21   0.069   0.173   0.058
    1UNL    C13   22  -0.007   0.293  -0.007
    1UNL    O10   23   0.086   0.407  -0.006
    1UNL    C14   24  -0.131   0.316   0.080
    1UNL     N1   25  -0.251   0.229   0.060
    1UNL    C15   26  -0.369   0.285   0.137
    1UNL    C16   27  -0.496   0.197   0.099
    1UNL    C17   28  -0.466   0.055   0.093
    1UNL    C18   29  -0.342  -0.005   0.082
    1UNL     N2   30  -0.362  -0.140   0.057
    1UNL    C19   31  -0.495  -0.165   0.044
    1UNL    C20   32  -0.562  -0.283   0.012
    1UNL    C21   33  -0.700  -0.278  -0.013
    1UNL    C22   34  -0.764  -0.157   0.014
    1UNL    C23   35  -0.702  -0.040   0.047
    1UNL    C24   36  -0.564  -0.044   0.061
    1UNL    C25   37  -0.219   0.085   0.077
    1UNL    C26   38  -0.126   0.053  -0.042
    1UNL    C27   39   0.023   0.040  -0.008
    1UNL     H1   40   0.077  -0.379  -0.089
    1UNL     H2   41   0.053  -0.330  -0.263
    1UNL     H3   42  -0.080  -0.383  -0.168
    1UNL     H4   43   0.232   0.078  -0.282
    1UNL     H5   44   0.266   0.278   0.070
    1UNL     H6   45   0.461   0.165   0.160
    1UNL     H7   46   0.509  -0.238   0.149
    1UNL     H8   47   0.231  -0.143   0.083
    1UNL     H9   48   0.287  -0.217   0.238
    1UNL    H10   49   0.371  -0.366   0.025
    1UNL    H11   50   0.618  -0.173  -0.040
    1UNL    H12   51   0.363  -0.237  -0.163
    1UNL    H13   52   0.389  -0.039  -0.164
    1UNL    H14   53   0.578  -0.113  -0.285
    1UNL    H15   54   0.452   0.172  -0.101
    1UNL    H16   55   0.684   0.071  -0.042
    1UNL    H17   56   0.059   0.177   0.163
    1UNL    H18   57  -0.022   0.265  -0.115
    1UNL    H19   58   0.161   0.408  -0.075
    1UNL    H20   59  -0.095   0.339   0.183
    1UNL    H21   60  -0.173   0.403   0.028
    1UNL    H22   61  -0.375   0.388   0.105
    1UNL    H23   62  -0.343   0.302   0.247
    1UNL    H24   63  -0.540   0.245   0.009
    1UNL    H25   64  -0.570   0.217   0.175
    1UNL    H26   65  -0.294  -0.205   0.027
    1UNL    H27   66  -0.508  -0.372   0.010
    1UNL    H28   67  -0.753  -0.364  -0.041
    1UNL    H29   68  -0.873  -0.151  -0.009
    1UNL    H30   69  -0.742   0.055   0.047
    1UNL    H31   70  -0.171   0.071   0.169
    1UNL    H32   71  -0.157   0.126  -0.119
    1UNL    H33   72  -0.161  -0.032  -0.091
    1UNL    H34   73   0.034  -0.045   0.068
   0.00000   0.00000   0.00000   0.00000   0.00000   0.00000   0.00000   0.00000   0.00000
Generated with MDTraj, t= 72.0
 73
    1UNL     C1    1   0.022  -0.343  -0.138
    1UNL     O1    2   0.022  -0.210  -0.099
    1UNL     C2    3   0.114  -0.131  -0.157
    1UNL     O2    4   0.195  -0.171  -0.235
    1UNL     C3    5   0.112   0.004  -0.098
    1UNL     C4    6   0.197   0.094  -0.161
    1UNL     O3    7   0.249   0.204  -0.097
    1UNL     C5    8   0.232   0.194   0.044
    1UNL     O4    9   0.294   0.086   0.104
    1UNL     C6   10   0.446   0.074   0.092
    1UNL     O5   11   0.494  -0.038   0.157
    1UNL     C7   12   0.464  -0.159   0.089
    1UNL     C8   13   0.311  -0.180   0.104
    1UNL     O6   14   0.266  -0.315   0.099
    1UNL     C9   15   0.516  -0.167  -0.064
    1UNL     O7   16   0.461  -0.284  -0.127
    1UNL    C10   17   0.470  -0.040  -0.141
    1UNL     O8   18   0.530  -0.032  -0.270
    1UNL    C11   19   0.495   0.088  -0.055
    1UNL     O9   20   0.634   0.118  -0.035
    1UNL    C12   21   0.080   0.176   0.076
    1UNL    C13   22  -0.006   0.293   0.013
    1UNL    O10   23   0.058   0.417   0.015
    1UNL    C14   24  -0.132   0.315   0.089
    1UNL     N1   25  -0.249   0.221   0.073
    1UNL    C15   26  -0.381   0.269   0.135
    1UNL    C16   27  -0.501   0.208   0.070
    1UNL    C17   28  -0.481   0.066   0.064
    1UNL    C18   29  -0.356   0.011   0.078
    1UNL     N2   30  -0.367  -0.121   0.052
    1UNL    C19   31  -0.495  -0.161   0.033
    1UNL    C20   32  -0.564  -0.281   0.012
    1UNL    C21   33  -0.698  -0.283  -0.007
    1UNL    C22   34  -0.782  -0.164  -0.010
    1UNL    C23   35  -0.718  -0.049   0.019
    1UNL    C24   36  -0.573  -0.037   0.033
    1UNL    C25   37  -0.224   0.082   0.092
    1UNL    C26   38  -0.123   0.045  -0.017
    1UNL    C27   39   0.029   0.042   0.024
    1UNL     H1   40   0.129  -0.364  -0.155
    1UNL     H2   41  -0.026  -0.339  -0.239
    1UNL     H3   42  -0.025  -0.417  -0.079
    1UNL     H4   43   0.240   0.081  -0.257
    1UNL     H5   44   0.276   0.285   0.080
    1UNL     H6   45   0.480   0.161   0.146
    1UNL     H7   46   0.503  -0.241   0.143
    1UNL     H8   47   0.257  -0.125   0.023
    1UNL     H9   48   0.281  -0.138   0.199
    1UNL    H10   49   0.301  -0.358   0.017
    1UNL    H11   50   0.627  -0.181  -0.058
    1UNL    H12   51   0.374  -0.250  -0.166
    1UNL    H13   52   0.364  -0.053  -0.154
    1UNL    H14   53   0.611  -0.089  -0.282
    1UNL    H15   54   0.445   0.171  -0.101
    1UNL    H16   55   0.690   0.086  -0.113
    1UNL    H17   56   0.063   0.175   0.180
    1UNL    H18   57  -0.027   0.274  -0.095
    1UNL    H19   58   0.134   0.410  -0.040
    1UNL    H20   59  -0.110   0.310   0.197
    1UNL    H21   60  -0.163   0.416   0.063
    1UNL    H22   61  -0.381   0.376   0.126
    1UNL    H23   62  -0.383   0.257   0.249
    1UNL    H24   63  -0.516   0.257  -0.029
    1UNL    H25   64  -0.582   0.245   0.133
    1UNL    H26   65  -0.289  -0.183   0.054
    1UNL    H27   66  -0.502  -0.371  -0.009
    1UNL    H28   67  -0.750  -0.384  -0.014
    1UNL    H29   68  -0.879  -0.166  -0.048
    1UNL    H30   69  -0.769   0.048   0.023
    1UNL    H31   70  -0.181   0.060   0.185
    1UNL    H32   71  -0.137   0.092  -0.116
    1UNL    H33   72  -0.146  -0.055  -0.048
    1UNL    H34   73   0.035  -0.038   0.107
   0.00000   0.00000   0.00000   0.00000   0.00000   0.00000   0.00000   0.00000   0.00000
Generated with MDTraj, t= 73.0
 73
    1UNL     C1    1   0.032  -0.355  -0.126
    1UNL     O1    2   0.019  -0.223  -0.091
    1UNL     C2    3   0.110  -0.140  -0.149
    1UNL     O2    4   0.188  -0.177  -0.233
    1UNL     C3    5   0.115  -0.004  -0.086
    1UNL     C4    6   0.182   0.097  -0.150
    1UNL     O3    7   0.225   0.213  -0.093
    1UNL     C5    8   0.226   0.188   0.051
    1UNL     O4    9   0.295   0.075   0.093
    1UNL     C6   10   0.443   0.090   0.080
    1UNL     O5   11   0.500  -0.016   0.152
    1UNL     C7   12   0.468  -0.151   0.101
    1UNL     C8   13   0.328  -0.204   0.131
    1UNL     O6   14   0.295  -0.338   0.093
    1UNL     C9   15   0.500  -0.161  -0.056
    1UNL     O7   16   0.436  -0.270  -0.114
    1UNL    C10   17   0.454  -0.036  -0.137
    1UNL     O8   18   0.509  -0.051  -0.266
    1UNL    C11   19   0.488   0.099  -0.072
    1UNL     O9   20   0.629   0.127  -0.103
    1UNL    C12   21   0.078   0.167   0.097
    1UNL    C13   22  -0.000   0.291   0.050
    1UNL    O10   23   0.065   0.422   0.046
    1UNL    C14   24  -0.134   0.306   0.123
    1UNL     N1   25  -0.247   0.231   0.081
    1UNL    C15   26  -0.387   0.285   0.121
    1UNL    C16   27  -0.491   0.216   0.040
    1UNL    C17   28  -0.477   0.069   0.037
    1UNL    C18   29  -0.351   0.010   0.060
    1UNL     N2   30  -0.362  -0.132   0.049
    1UNL    C19   31  -0.497  -0.152   0.026
    1UNL    C20   32  -0.558  -0.277   0.013
    1UNL    C21   33  -0.690  -0.285  -0.002
    1UNL    C22   34  -0.759  -0.161  -0.021
    1UNL    C23   35  -0.709  -0.034  -0.003
    1UNL    C24   36  -0.565  -0.035   0.008
    1UNL    C25   37  -0.221   0.082   0.091
    1UNL    C26   38  -0.111   0.049  -0.018
    1UNL    C27   39   0.029   0.033   0.032
    1UNL     H1   40   0.140  -0.370  -0.115
    1UNL     H2   41  -0.000  -0.363  -0.236
    1UNL     H3   42  -0.033  -0.424  -0.072
    1UNL     H4   43   0.206   0.094  -0.255
    1UNL     H5   44   0.270   0.269   0.100
    1UNL     H6   45   0.481   0.180   0.126
    1UNL     H7   46   0.531  -0.221   0.152
    1UNL     H8   47   0.255  -0.140   0.077
    1UNL     H9   48   0.308  -0.194   0.236
    1UNL    H10   49   0.362  -0.359   0.026
    1UNL    H11   50   0.610  -0.179  -0.063
    1UNL    H12   51   0.369  -0.246  -0.178
    1UNL    H13   52   0.343  -0.038  -0.141
    1UNL    H14   53   0.447  -0.099  -0.326
    1UNL    H15   54   0.442   0.181  -0.127
    1UNL    H16   55   0.659   0.074  -0.180
    1UNL    H17   56   0.075   0.172   0.202
    1UNL    H18   57  -0.018   0.281  -0.059
    1UNL    H19   58   0.143   0.411  -0.020
    1UNL    H20   59  -0.109   0.273   0.225
    1UNL    H21   60  -0.169   0.410   0.116
    1UNL    H22   61  -0.393   0.392   0.124
    1UNL    H23   62  -0.399   0.262   0.233
    1UNL    H24   63  -0.467   0.262  -0.058
    1UNL    H25   64  -0.592   0.248   0.067
    1UNL    H26   65  -0.288  -0.202   0.057
    1UNL    H27   66  -0.498  -0.364   0.023
    1UNL    H28   67  -0.743  -0.373  -0.005
    1UNL    H29   68  -0.871  -0.170  -0.025
    1UNL    H30   69  -0.764   0.059   0.011
    1UNL    H31   70  -0.179   0.062   0.186
    1UNL    H32   71  -0.114   0.127  -0.097
    1UNL    H33   72  -0.139  -0.033  -0.086
    1UNL    H34   73   0.027  -0.052   0.111
   0.00000   0.00000   0.00000   0.00000   0.00000   0.00000   0.00000   0.00000   0.00000
Generated with MDTraj, t= 74.0
 73
    1UNL     C1    1   0.018  -0.346  -0.111
    1UNL     O1    2   0.007  -0.215  -0.080
    1UNL     C2    3   0.104  -0.139  -0.151
    1UNL     O2    4   0.191  -0.183  -0.224
    1UNL     C3    5   0.098   0.005  -0.112
    1UNL     C4    6   0.176   0.099  -0.167
    1UNL     O3    7   0.233   0.203  -0.100
    1UNL     C5    8   0.230   0.180   0.042
    1UNL     O4    9   0.301   0.068   0.093
    1UNL     C6   10   0.442   0.081   0.071
    1UNL     O5   11   0.520  -0.021   0.134
    1UNL     C7   12   0.490  -0.151   0.084
    1UNL     C8   13   0.352  -0.194   0.132
    1UNL     O6   14   0.341  -0.329   0.176
    1UNL     C9   15   0.512  -0.164  -0.074
    1UNL     O7   16   0.457  -0.280  -0.131
    1UNL    C10   17   0.448  -0.041  -0.144
    1UNL     O8   18   0.492  -0.038  -0.277
    1UNL    C11   19   0.477   0.091  -0.075
    1UNL     O9   20   0.610   0.111  -0.100
    1UNL    C12   21   0.079   0.183   0.084
    1UNL    C13   22   0.003   0.311   0.062
    1UNL    O10   23   0.078   0.421   0.123
    1UNL    C14   24  -0.133   0.308   0.143
    1UNL     N1   25  -0.243   0.227   0.086
    1UNL    C15   26  -0.383   0.287   0.100
    1UNL    C16   27  -0.495   0.212   0.026
    1UNL    C17   28  -0.472   0.067   0.040
    1UNL    C18   29  -0.352   0.006   0.071
    1UNL     N2   30  -0.373  -0.134   0.074
    1UNL    C19   31  -0.507  -0.163   0.035
    1UNL    C20   32  -0.570  -0.285   0.019
    1UNL    C21   33  -0.703  -0.281  -0.023
    1UNL    C22   34  -0.775  -0.160  -0.041
    1UNL    C23   35  -0.705  -0.040  -0.032
    1UNL    C24   36  -0.570  -0.039   0.008
    1UNL    C25   37  -0.225   0.077   0.081
    1UNL    C26   38  -0.129   0.062  -0.039
    1UNL    C27   39   0.017   0.053   0.008
    1UNL     H1   40   0.066  -0.385  -0.022
    1UNL     H2   41   0.084  -0.360  -0.207
    1UNL     H3   42  -0.081  -0.390  -0.139
    1UNL     H4   43   0.207   0.086  -0.272
    1UNL     H5   44   0.285   0.257   0.086
    1UNL     H6   45   0.475   0.169   0.127
    1UNL     H7   46   0.563  -0.220   0.131
    1UNL     H8   47   0.270  -0.179   0.058
    1UNL     H9   48   0.325  -0.137   0.216
    1UNL    H10   49   0.380  -0.390   0.107
    1UNL    H11   50   0.620  -0.156  -0.094
    1UNL    H12   51   0.363  -0.253  -0.153
    1UNL    H13   52   0.333  -0.051  -0.157
    1UNL    H14   53   0.449  -0.116  -0.317
    1UNL    H15   54   0.424   0.172  -0.125
    1UNL    H16   55   0.633   0.080  -0.189
    1UNL    H17   56   0.089   0.177   0.189
    1UNL    H18   57  -0.012   0.338  -0.043
    1UNL    H19   58   0.166   0.437   0.073
    1UNL    H20   59  -0.113   0.271   0.244
    1UNL    H21   60  -0.161   0.414   0.143
    1UNL    H22   61  -0.378   0.392   0.082
    1UNL    H23   62  -0.402   0.288   0.213
    1UNL    H24   63  -0.488   0.229  -0.082
    1UNL    H25   64  -0.592   0.249   0.063
    1UNL    H26   65  -0.299  -0.206   0.079
    1UNL    H27   66  -0.526  -0.376   0.056
    1UNL    H28   67  -0.762  -0.376  -0.024
    1UNL    H29   68  -0.876  -0.164  -0.066
    1UNL    H30   69  -0.761   0.047  -0.039
    1UNL    H31   70  -0.182   0.052   0.175
    1UNL    H32   71  -0.136   0.154  -0.098
    1UNL    H33   72  -0.166  -0.017  -0.109
    1UNL    H34   73   0.022  -0.034   0.085
   0.00000   0.00000   0.00000   0.00000   0.00000   0.00000   0.00000   0.00000   0.00000
Generated with MDTraj, t= 75.0
 73
    1UNL     C1    1   0.001  -0.354  -0.120
    1UNL     O1    2  -0.020  -0.215  -0.098
    1UNL     C2    3   0.095  -0.144  -0.141
    1UNL     O2    4   0.188  -0.187  -0.204
    1UNL     C3    5   0.102  -0.004  -0.091
    1UNL     C4    6   0.170   0.093  -0.163
    1UNL     O3    7   0.208   0.211  -0.105
    1UNL     C5    8   0.218   0.191   0.036
    1UNL     O4    9   0.305   0.079   0.074
    1UNL     C6   10   0.443   0.094   0.056
    1UNL     O5   11   0.528  -0.003   0.126
    1UNL     C7   12   0.500  -0.137   0.086
    1UNL     C8   13   0.362  -0.187   0.126
    1UNL     O6   14   0.366  -0.322   0.168
    1UNL     C9   15   0.517  -0.157  -0.071
    1UNL     O7   16   0.453  -0.284  -0.113
    1UNL    C10   17   0.454  -0.048  -0.154
    1UNL     O8   18   0.508  -0.066  -0.283
    1UNL    C11   19   0.486   0.096  -0.094
    1UNL     O9   20   0.630   0.114  -0.091
    1UNL    C12   21   0.076   0.159   0.097
    1UNL    C13   22  -0.003   0.290   0.081
    1UNL    O10   23   0.070   0.408   0.127
    1UNL    C14   24  -0.132   0.294   0.166
    1UNL     N1   25  -0.243   0.232   0.091
    1UNL    C15   26  -0.377   0.282   0.114
    1UNL    C16   27  -0.487   0.224   0.009
    1UNL    C17   28  -0.474   0.074   0.016
    1UNL    C18   29  -0.362   0.015   0.059
    1UNL     N2   30  -0.375  -0.117   0.075
    1UNL    C19   31  -0.505  -0.152   0.032
    1UNL    C20   32  -0.563  -0.275   0.014
    1UNL    C21   33  -0.699  -0.273  -0.020
    1UNL    C22   34  -0.772  -0.161  -0.046
    1UNL    C23   35  -0.709  -0.039  -0.041
    1UNL    C24   36  -0.577  -0.030   0.008
    1UNL    C25   37  -0.232   0.083   0.085
    1UNL    C26   38  -0.131   0.046  -0.023
    1UNL    C27   39   0.016   0.036   0.026
    1UNL     H1   40   0.096  -0.366  -0.070
    1UNL     H2   41   0.006  -0.376  -0.234
    1UNL     H3   42  -0.079  -0.418  -0.078
    1UNL     H4   43   0.190   0.071  -0.270
    1UNL     H5   44   0.251   0.277   0.084
    1UNL     H6   45   0.463   0.190   0.104
    1UNL     H7   46   0.586  -0.197   0.132
    1UNL     H8   47   0.286  -0.167   0.047
    1UNL     H9   48   0.328  -0.135   0.212
    1UNL    H10   49   0.416  -0.378   0.102
    1UNL    H11   50   0.623  -0.170  -0.092
    1UNL    H12   51   0.357  -0.265  -0.144
    1UNL    H13   52   0.341  -0.072  -0.169
    1UNL    H14   53   0.486  -0.157  -0.312
    1UNL    H15   54   0.446   0.187  -0.144
    1UNL    H16   55   0.674   0.101  -0.181
    1UNL    H17   56   0.076   0.129   0.198
    1UNL    H18   57  -0.033   0.294  -0.023
    1UNL    H19   58   0.125   0.432   0.048
    1UNL    H20   59  -0.110   0.229   0.251
    1UNL    H21   60  -0.159   0.396   0.201
    1UNL    H22   61  -0.373   0.388   0.131
    1UNL    H23   62  -0.402   0.240   0.217
    1UNL    H24   63  -0.474   0.273  -0.090
    1UNL    H25   64  -0.591   0.238   0.040
    1UNL    H26   65  -0.309  -0.192   0.107
    1UNL    H27   66  -0.508  -0.366   0.042
    1UNL    H28   67  -0.737  -0.372  -0.026
    1UNL    H29   68  -0.867  -0.161  -0.104
    1UNL    H30   69  -0.750   0.052  -0.094
    1UNL    H31   70  -0.202   0.056   0.183
    1UNL    H32   71  -0.141   0.101  -0.116
    1UNL    H33   72  -0.158  -0.063  -0.039
    1UNL    H34   73   0.022  -0.060   0.093
   0.00000   0.00000   0.00000   0.00000   0.00000   0.00000   0.00000   0.00000   0.00000
Generated with MDTraj, t= 76.0
 73
    1UNL     C1    1  -0.021  -0.352  -0.155
    1UNL     O1    2  -0.009  -0.238  -0.079
    1UNL     C2    3   0.094  -0.161  -0.128
    1UNL     O2    4   0.188  -0.200  -0.191
    1UNL     C3    5   0.103  -0.020  -0.085
    1UNL     C4    6   0.184   0.062  -0.155
    1UNL     O3    7   0.223   0.184  -0.113
    1UNL     C5    8   0.220   0.190   0.026
    1UNL     O4    9   0.315   0.091   0.085
    1UNL     C6   10   0.455   0.100   0.058
    1UNL     O5   11   0.542   0.000   0.126
    1UNL     C7   12   0.502  -0.134   0.092
    1UNL     C8   13   0.364  -0.179   0.158
    1UNL     O6   14   0.324  -0.314   0.144
    1UNL     C9   15   0.523  -0.151  -0.068
    1UNL     O7   16   0.463  -0.279  -0.105
    1UNL    C10   17   0.467  -0.042  -0.149
    1UNL     O8   18   0.525  -0.066  -0.275
    1UNL    C11   19   0.481   0.100  -0.094
    1UNL     O9   20   0.599   0.164  -0.128
    1UNL    C12   21   0.078   0.170   0.094
    1UNL    C13   22  -0.004   0.293   0.079
    1UNL    O10   23   0.081   0.405   0.098
    1UNL    C14   24  -0.134   0.296   0.161
    1UNL     N1   25  -0.255   0.217   0.114
    1UNL    C15   26  -0.391   0.284   0.128
    1UNL    C16   27  -0.492   0.219   0.035
    1UNL    C17   28  -0.472   0.068   0.036
    1UNL    C18   29  -0.351  -0.004   0.060
    1UNL     N2   30  -0.378  -0.137   0.059
    1UNL    C19   31  -0.510  -0.163   0.025
    1UNL    C20   32  -0.591  -0.278   0.003
    1UNL    C21   33  -0.722  -0.258  -0.033
    1UNL    C22   34  -0.772  -0.131  -0.050
    1UNL    C23   35  -0.698  -0.014  -0.042
    1UNL    C24   36  -0.568  -0.033   0.003
    1UNL    C25   37  -0.227   0.074   0.094
    1UNL    C26   38  -0.121   0.043  -0.022
    1UNL    C27   39   0.025   0.038   0.032
    1UNL     H1   40   0.075  -0.393  -0.162
    1UNL     H2   41  -0.071  -0.327  -0.255
    1UNL     H3   42  -0.091  -0.417  -0.100
    1UNL     H4   43   0.220   0.032  -0.252
    1UNL     H5   44   0.259   0.283   0.053
    1UNL     H6   45   0.483   0.202   0.090
    1UNL     H7   46   0.594  -0.193   0.133
    1UNL     H8   47   0.284  -0.112   0.121
    1UNL     H9   48   0.372  -0.157   0.261
    1UNL    H10   49   0.374  -0.359   0.074
    1UNL    H11   50   0.631  -0.151  -0.086
    1UNL    H12   51   0.369  -0.270  -0.127
    1UNL    H13   52   0.355  -0.060  -0.171
    1UNL    H14   53   0.514  -0.157  -0.313
    1UNL    H15   54   0.404   0.162  -0.146
    1UNL    H16   55   0.610   0.157  -0.225
    1UNL    H17   56   0.089   0.144   0.195
    1UNL    H18   57  -0.041   0.303  -0.022
    1UNL    H19   58   0.144   0.421   0.029
    1UNL    H20   59  -0.116   0.277   0.267
    1UNL    H21   60  -0.166   0.402   0.154
    1UNL    H22   61  -0.379   0.387   0.099
    1UNL    H23   62  -0.431   0.283   0.235
    1UNL    H24   63  -0.472   0.249  -0.070
    1UNL    H25   64  -0.594   0.251   0.059
    1UNL    H26   65  -0.302  -0.209   0.059
    1UNL    H27   66  -0.546  -0.372   0.023
    1UNL    H28   67  -0.778  -0.348  -0.060
    1UNL    H29   68  -0.878  -0.129  -0.078
    1UNL    H30   69  -0.728   0.075  -0.087
    1UNL    H31   70  -0.183   0.052   0.189
    1UNL    H32   71  -0.130   0.118  -0.101
    1UNL    H33   72  -0.144  -0.062  -0.057
    1UNL    H34   73   0.037  -0.043   0.115
   0.00000   0.00000   0.00000   0.00000   0.00000   0.00000   0.00000   0.00000   0.00000
Generated with MDTraj, t= 77.0
 73
    1UNL     C1    1  -0.018  -0.366  -0.128
    1UNL     O1    2  -0.024  -0.228  -0.092
    1UNL     C2    3   0.097  -0.160  -0.130
    1UNL     O2    4   0.186  -0.211  -0.193
    1UNL     C3    5   0.115  -0.022  -0.083
    1UNL     C4    6   0.190   0.068  -0.150
    1UNL     O3    7   0.232   0.185  -0.106
    1UNL     C5    8   0.225   0.185   0.036
    1UNL     O4    9   0.313   0.089   0.093
    1UNL     C6   10   0.446   0.106   0.054
    1UNL     O5   11   0.529   0.017   0.127
    1UNL     C7   12   0.494  -0.114   0.091
    1UNL     C8   13   0.349  -0.161   0.127
    1UNL     O6   14   0.326  -0.301   0.144
    1UNL     C9   15   0.530  -0.143  -0.059
    1UNL     O7   16   0.476  -0.268  -0.098
    1UNL    C10   17   0.467  -0.038  -0.156
    1UNL     O8   18   0.524  -0.038  -0.282
    1UNL    C11   19   0.484   0.106  -0.100
    1UNL     O9   20   0.622   0.130  -0.108
    1UNL    C12   21   0.083   0.161   0.085
    1UNL    C13   22  -0.005   0.272   0.057
    1UNL    O10   23   0.070   0.393   0.056
    1UNL    C14   24  -0.124   0.288   0.151
    1UNL     N1   25  -0.240   0.213   0.100
    1UNL    C15   26  -0.376   0.268   0.149
    1UNL    C16   27  -0.487   0.218   0.067
    1UNL    C17   28  -0.479   0.068   0.046
    1UNL    C18   29  -0.360   0.005   0.059
    1UNL     N2   30  -0.385  -0.132   0.046
    1UNL    C19   31  -0.521  -0.149   0.020
    1UNL    C20   32  -0.589  -0.264  -0.022
    1UNL    C21   33  -0.715  -0.252  -0.054
    1UNL    C22   34  -0.781  -0.123  -0.056
    1UNL    C23   35  -0.716  -0.010  -0.020
    1UNL    C24   36  -0.580  -0.026   0.018
    1UNL    C25   37  -0.227   0.067   0.099
    1UNL    C26   38  -0.120   0.001   0.007
    1UNL    C27   39   0.032   0.021   0.037
    1UNL     H1   40   0.045  -0.415  -0.065
    1UNL     H2   41   0.007  -0.375  -0.235
    1UNL     H3   42  -0.121  -0.401  -0.112
    1UNL     H4   43   0.205   0.058  -0.254
    1UNL     H5   44   0.258   0.278   0.074
    1UNL     H6   45   0.473   0.206   0.097
    1UNL     H7   46   0.560  -0.186   0.154
    1UNL     H8   47   0.276  -0.122   0.054
    1UNL     H9   48   0.322  -0.118   0.222
    1UNL    H10   49   0.368  -0.360   0.075
    1UNL    H11   50   0.639  -0.151  -0.065
    1UNL    H12   51   0.389  -0.242  -0.128
    1UNL    H13   52   0.354  -0.056  -0.167
    1UNL    H14   53   0.512  -0.127  -0.324
    1UNL    H15   54   0.419   0.183  -0.147
    1UNL    H16   55   0.647   0.122  -0.201
    1UNL    H17   56   0.097   0.145   0.188
    1UNL    H18   57  -0.042   0.262  -0.046
    1UNL    H19   58   0.121   0.401  -0.024
    1UNL    H20   59  -0.108   0.271   0.258
    1UNL    H21   60  -0.159   0.393   0.149
    1UNL    H22   61  -0.379   0.378   0.152
    1UNL    H23   62  -0.391   0.223   0.251
    1UNL    H24   63  -0.465   0.261  -0.032
    1UNL    H25   64  -0.588   0.246   0.104
    1UNL    H26   65  -0.309  -0.198   0.017
    1UNL    H27   66  -0.536  -0.357  -0.041
    1UNL    H28   67  -0.774  -0.339  -0.070
    1UNL    H29   68  -0.880  -0.127  -0.081
    1UNL    H30   69  -0.768   0.086  -0.013
    1UNL    H31   70  -0.205   0.037   0.200
    1UNL    H32   71  -0.138   0.028  -0.098
    1UNL    H33   72  -0.135  -0.109   0.026
    1UNL    H34   73   0.056  -0.043   0.132
   0.00000   0.00000   0.00000   0.00000   0.00000   0.00000   0.00000   0.00000   0.00000
Generated with MDTraj, t= 78.0
 73
    1UNL     C1    1   0.026  -0.378  -0.119
    1UNL     O1    2  -0.011  -0.243  -0.083
    1UNL     C2    3   0.091  -0.161  -0.129
    1UNL     O2    4   0.197  -0.199  -0.172
    1UNL     C3    5   0.088  -0.014  -0.101
    1UNL     C4    6   0.170   0.074  -0.168
    1UNL     O3    7   0.223   0.189  -0.123
    1UNL     C5    8   0.224   0.188   0.024
    1UNL     O4    9   0.305   0.078   0.071
    1UNL     C6   10   0.446   0.097   0.069
    1UNL     O5   11   0.528   0.002   0.143
    1UNL     C7   12   0.515  -0.138   0.097
    1UNL     C8   13   0.376  -0.188   0.145
    1UNL     O6   14   0.341  -0.323   0.126
    1UNL     C9   15   0.531  -0.157  -0.060
    1UNL     O7   16   0.466  -0.272  -0.096
    1UNL    C10   17   0.471  -0.033  -0.144
    1UNL     O8   18   0.526  -0.026  -0.273
    1UNL    C11   19   0.499   0.106  -0.080
    1UNL     O9   20   0.639   0.129  -0.090
    1UNL    C12   21   0.075   0.165   0.067
    1UNL    C13   22  -0.016   0.288   0.032
    1UNL    O10   23   0.055   0.411   0.011
    1UNL    C14   24  -0.134   0.309   0.139
    1UNL     N1   25  -0.248   0.221   0.105
    1UNL    C15   26  -0.377   0.263   0.176
    1UNL    C16   27  -0.500   0.211   0.107
    1UNL    C17   28  -0.482   0.063   0.074
    1UNL    C18   29  -0.360   0.005   0.078
    1UNL     N2   30  -0.380  -0.128   0.040
    1UNL    C19   31  -0.513  -0.147   0.010
    1UNL    C20   32  -0.585  -0.253  -0.050
    1UNL    C21   33  -0.721  -0.245  -0.068
    1UNL    C22   34  -0.790  -0.121  -0.052
    1UNL    C23   35  -0.718  -0.016  -0.004
    1UNL    C24   36  -0.579  -0.026   0.027
    1UNL    C25   37  -0.229   0.072   0.101
    1UNL    C26   38  -0.135   0.034  -0.010
    1UNL    C27   39   0.015   0.024   0.018
    1UNL     H1   40   0.092  -0.422  -0.055
    1UNL     H2   41   0.066  -0.377  -0.220
    1UNL     H3   42  -0.069  -0.432  -0.115
    1UNL     H4   43   0.207   0.046  -0.266
    1UNL     H5   44   0.253   0.283   0.069
    1UNL     H6   45   0.472   0.196   0.114
    1UNL     H7   46   0.594  -0.204   0.144
    1UNL     H8   47   0.296  -0.138   0.086
    1UNL     H9   48   0.361  -0.161   0.250
    1UNL    H10   49   0.361  -0.347   0.034
    1UNL    H11   50   0.638  -0.167  -0.090
    1UNL    H12   51   0.370  -0.260  -0.125
    1UNL    H13   52   0.359  -0.039  -0.151
    1UNL    H14   53   0.515  -0.117  -0.308
    1UNL    H15   54   0.440   0.186  -0.133
    1UNL    H16   55   0.668   0.101  -0.183
    1UNL    H17   56   0.076   0.160   0.171
    1UNL    H18   57  -0.063   0.272  -0.067
    1UNL    H19   58   0.125   0.385  -0.061
    1UNL    H20   59  -0.107   0.271   0.238
    1UNL    H21   60  -0.164   0.413   0.164
    1UNL    H22   61  -0.384   0.373   0.168
    1UNL    H23   62  -0.382   0.220   0.279
    1UNL    H24   63  -0.540   0.263   0.018
    1UNL    H25   64  -0.580   0.210   0.183
    1UNL    H26   65  -0.313  -0.206   0.053
    1UNL    H27   66  -0.528  -0.336  -0.090
    1UNL    H28   67  -0.786  -0.329  -0.096
    1UNL    H29   68  -0.907  -0.121  -0.063
    1UNL    H30   69  -0.781   0.070   0.022
    1UNL    H31   70  -0.201   0.041   0.200
    1UNL    H32   71  -0.159   0.104  -0.091
    1UNL    H33   72  -0.163  -0.071  -0.044
    1UNL    H34   73   0.043  -0.055   0.099
   0.00000   0.00000   0.00000   0.00000   0.00000   0.00000   0.00000   0.00000   0.00000
Generated with MDTraj, t= 79.0
 73
    1UNL     C1    1   0.033  -0.384  -0.092
    1UNL     O1    2   0.019  -0.241  -0.070
    1UNL     C2    3   0.107  -0.164  -0.143
    1UNL     O2    4   0.193  -0.217  -0.209
    1UNL     C3    5   0.105  -0.017  -0.114
    1UNL     C4    6   0.187   0.076  -0.175
    1UNL     O3    7   0.213   0.197  -0.114
    1UNL     C5    8   0.215   0.190   0.027
    1UNL     O4    9   0.279   0.077   0.084
    1UNL     C6   10   0.418   0.093   0.080
    1UNL     O5   11   0.486  -0.004   0.149
    1UNL     C7   12   0.487  -0.144   0.096
    1UNL     C8   13   0.351  -0.213   0.115
    1UNL     O6   14   0.359  -0.350   0.147
    1UNL     C9   15   0.535  -0.151  -0.051
    1UNL     O7   16   0.491  -0.276  -0.111
    1UNL    C10   17   0.471  -0.033  -0.129
    1UNL     O8   18   0.531  -0.034  -0.267
    1UNL    C11   19   0.476   0.106  -0.065
    1UNL     O9   20   0.608   0.156  -0.086
    1UNL    C12   21   0.065   0.178   0.070
    1UNL    C13   22  -0.011   0.297   0.012
    1UNL    O10   23   0.076   0.408   0.016
    1UNL    C14   24  -0.133   0.324   0.105
    1UNL     N1   25  -0.247   0.231   0.081
    1UNL    C15   26  -0.357   0.268   0.189
    1UNL    C16   27  -0.498   0.202   0.149
    1UNL    C17   28  -0.478   0.064   0.089
    1UNL    C18   29  -0.356  -0.004   0.075
    1UNL     N2   30  -0.374  -0.126   0.029
    1UNL    C19   31  -0.508  -0.143   0.004
    1UNL    C20   32  -0.581  -0.253  -0.057
    1UNL    C21   33  -0.717  -0.238  -0.076
    1UNL    C22   34  -0.782  -0.124  -0.028
    1UNL    C23   35  -0.714  -0.016   0.028
    1UNL    C24   36  -0.577  -0.024   0.039
    1UNL    C25   37  -0.227   0.078   0.082
    1UNL    C26   38  -0.138   0.038  -0.040
    1UNL    C27   39   0.015   0.038  -0.002
    1UNL     H1   40   0.129  -0.424  -0.090
    1UNL     H2   41  -0.008  -0.409  -0.192
    1UNL     H3   42  -0.030  -0.428  -0.012
    1UNL     H4   43   0.245   0.056  -0.268
    1UNL     H5   44   0.263   0.285   0.061
    1UNL     H6   45   0.450   0.188   0.130
    1UNL     H7   46   0.560  -0.194   0.159
    1UNL     H8   47   0.287  -0.197   0.024
    1UNL     H9   48   0.302  -0.164   0.202
    1UNL    H10   49   0.401  -0.385   0.064
    1UNL    H11   50   0.648  -0.147  -0.057
    1UNL    H12   51   0.396  -0.261  -0.140
    1UNL    H13   52   0.367  -0.064  -0.140
    1UNL    H14   53   0.567  -0.125  -0.265
    1UNL    H15   54   0.405   0.170  -0.125
    1UNL    H16   55   0.647   0.105  -0.159
    1UNL    H17   56   0.055   0.181   0.173
    1UNL    H18   57  -0.048   0.296  -0.095
    1UNL    H19   58   0.142   0.405  -0.057
    1UNL    H20   59  -0.098   0.339   0.208
    1UNL    H21   60  -0.176   0.422   0.081
    1UNL    H22   61  -0.368   0.378   0.185
    1UNL    H23   62  -0.325   0.221   0.285
    1UNL    H24   63  -0.554   0.269   0.083
    1UNL    H25   64  -0.564   0.183   0.236
    1UNL    H26   65  -0.301  -0.184  -0.013
    1UNL    H27   66  -0.527  -0.340  -0.088
    1UNL    H28   67  -0.765  -0.313  -0.137
    1UNL    H29   68  -0.886  -0.123  -0.038
    1UNL    H30   69  -0.769   0.070   0.056
    1UNL    H31   70  -0.182   0.048   0.176
    1UNL    H32   71  -0.147   0.120  -0.115
    1UNL    H33   72  -0.175  -0.056  -0.090
    1UNL    H34   73   0.038  -0.038   0.084
   0.00000   0.00000   0.00000   0.00000   0.00000   0.00000   0.00000   0.00000   0.00000
Generated with MDTraj, t= 80.0
 73
    1UNL     C1    1   0.051  -0.371  -0.080
    1UNL     O1    2   0.021  -0.231  -0.073
    1UNL     C2    3   0.114  -0.156  -0.143
    1UNL     O2    4   0.199  -0.208  -0.211
    1UNL     C3    5   0.108  -0.012  -0.112
    1UNL     C4    6   0.192   0.079  -0.173
    1UNL     O3    7   0.230   0.202  -0.112
    1UNL     C5    8   0.214   0.190   0.026
    1UNL     O4    9   0.287   0.079   0.077
    1UNL     C6   10   0.429   0.090   0.078
    1UNL     O5   11   0.498  -0.014   0.155
    1UNL     C7   12   0.488  -0.151   0.108
    1UNL     C8   13   0.350  -0.199   0.136
    1UNL     O6   14   0.320  -0.331   0.091
    1UNL     C9   15   0.531  -0.158  -0.043
    1UNL     O7   16   0.476  -0.266  -0.129
    1UNL    C10   17   0.474  -0.046  -0.126
    1UNL     O8   18   0.548  -0.036  -0.252
    1UNL    C11   19   0.486   0.092  -0.067
    1UNL     O9   20   0.618   0.138  -0.055
    1UNL    C12   21   0.067   0.174   0.063
    1UNL    C13   22  -0.015   0.297   0.002
    1UNL    O10   23   0.067   0.416  -0.013
    1UNL    C14   24  -0.136   0.325   0.096
    1UNL     N1   25  -0.255   0.231   0.079
    1UNL    C15   26  -0.367   0.272   0.170
    1UNL    C16   27  -0.499   0.199   0.145
    1UNL    C17   28  -0.482   0.061   0.090
    1UNL    C18   29  -0.365   0.006   0.055
    1UNL     N2   30  -0.379  -0.111  -0.005
    1UNL    C19   31  -0.515  -0.137  -0.014
    1UNL    C20   32  -0.587  -0.249  -0.059
    1UNL    C21   33  -0.726  -0.245  -0.062
    1UNL    C22   34  -0.790  -0.143   0.003
    1UNL    C23   35  -0.720  -0.040   0.066
    1UNL    C24   36  -0.581  -0.034   0.061
    1UNL    C25   37  -0.233   0.078   0.087
    1UNL    C26   38  -0.124   0.032  -0.023
    1UNL    C27   39   0.020   0.032   0.010
    1UNL     H1   40   0.153  -0.394  -0.053
    1UNL     H2   41   0.040  -0.408  -0.183
    1UNL     H3   42  -0.016  -0.423  -0.005
    1UNL     H4   43   0.225   0.064  -0.277
    1UNL     H5   44   0.264   0.283   0.068
    1UNL     H6   45   0.451   0.186   0.127
    1UNL     H7   46   0.556  -0.211   0.163
    1UNL     H8   47   0.283  -0.130   0.079
    1UNL     H9   48   0.325  -0.183   0.246
    1UNL    H10   49   0.388  -0.357   0.024
    1UNL    H11   50   0.642  -0.170  -0.050
    1UNL    H12   51   0.385  -0.248  -0.159
    1UNL    H13   52   0.372  -0.073  -0.149
    1UNL    H14   53   0.581  -0.124  -0.279
    1UNL    H15   54   0.415   0.155  -0.125
    1UNL    H16   55   0.680   0.077  -0.102
    1UNL    H17   56   0.052   0.163   0.164
    1UNL    H18   57  -0.043   0.280  -0.106
    1UNL    H19   58   0.145   0.398  -0.061
    1UNL    H20   59  -0.093   0.306   0.195
    1UNL    H21   60  -0.156   0.433   0.104
    1UNL    H22   61  -0.381   0.381   0.152
    1UNL    H23   62  -0.328   0.240   0.269
    1UNL    H24   63  -0.565   0.244   0.069
    1UNL    H25   64  -0.561   0.203   0.237
    1UNL    H26   65  -0.302  -0.171  -0.031
    1UNL    H27   66  -0.524  -0.336  -0.081
    1UNL    H28   67  -0.774  -0.326  -0.113
    1UNL    H29   68  -0.894  -0.129  -0.009
    1UNL    H30   69  -0.781   0.045   0.107
    1UNL    H31   70  -0.204   0.046   0.188
    1UNL    H32   71  -0.152   0.090  -0.115
    1UNL    H33   72  -0.144  -0.071  -0.063
    1UNL    H34   73   0.032  -0.042   0.099
   0.00000   0.00000   0.00000   0.00000   0.00000   0.00000   0.00000   0.00000   0.00000
Generated with MDTraj, t= 81.0
 73
    1UNL     C1    1   0.044  -0.363  -0.109
    1UNL     O1    2   0.012  -0.232  -0.078
    1UNL     C2    3   0.107  -0.150  -0.134
    1UNL     O2    4   0.203  -0.188  -0.194
    1UNL     C3    5   0.101  -0.005  -0.107
    1UNL     C4    6   0.192   0.078  -0.170
    1UNL     O3    7   0.246   0.196  -0.119
    1UNL     C5    8   0.227   0.192   0.026
    1UNL     O4    9   0.300   0.085   0.088
    1UNL     C6   10   0.443   0.093   0.098
    1UNL     O5   11   0.505  -0.019   0.158
    1UNL     C7   12   0.472  -0.148   0.099
    1UNL     C8   13   0.320  -0.168   0.102
    1UNL     O6   14   0.279  -0.300   0.076
    1UNL     C9   15   0.526  -0.159  -0.051
    1UNL     O7   16   0.477  -0.272  -0.116
    1UNL    C10   17   0.487  -0.036  -0.125
    1UNL     O8   18   0.555  -0.030  -0.251
    1UNL    C11   19   0.515   0.092  -0.045
    1UNL     O9   20   0.658   0.114  -0.049
    1UNL    C12   21   0.075   0.180   0.059
    1UNL    C13   22  -0.012   0.291   0.002
    1UNL    O10   23   0.064   0.411  -0.013
    1UNL    C14   24  -0.138   0.307   0.083
    1UNL     N1   25  -0.251   0.222   0.081
    1UNL    C15   26  -0.372   0.252   0.169
    1UNL    C16   27  -0.503   0.194   0.127
    1UNL    C17   28  -0.484   0.059   0.076
    1UNL    C18   29  -0.361   0.007   0.051
    1UNL     N2   30  -0.380  -0.118  -0.015
    1UNL    C19   31  -0.520  -0.149  -0.016
    1UNL    C20   32  -0.599  -0.265  -0.039
    1UNL    C21   33  -0.735  -0.256  -0.023
    1UNL    C22   34  -0.796  -0.139   0.032
    1UNL    C23   35  -0.715  -0.036   0.069
    1UNL    C24   36  -0.580  -0.040   0.044
    1UNL    C25   37  -0.234   0.081   0.075
    1UNL    C26   38  -0.131   0.035  -0.028
    1UNL    C27   39   0.014   0.040   0.013
    1UNL     H1   40   0.103  -0.414  -0.029
    1UNL     H2   41   0.110  -0.365  -0.196
    1UNL     H3   42  -0.052  -0.426  -0.124
    1UNL     H4   43   0.231   0.043  -0.263
    1UNL     H5   44   0.271   0.289   0.071
    1UNL     H6   45   0.477   0.182   0.153
    1UNL     H7   46   0.519  -0.219   0.163
    1UNL     H8   47   0.271  -0.101   0.032
    1UNL     H9   48   0.273  -0.134   0.200
    1UNL    H10   49   0.331  -0.354   0.010
    1UNL    H11   50   0.637  -0.163  -0.043
    1UNL    H12   51   0.385  -0.256  -0.150
    1UNL    H13   52   0.387  -0.042  -0.153
    1UNL    H14   53   0.577  -0.118  -0.286
    1UNL    H15   54   0.471   0.182  -0.093
    1UNL    H16   55   0.709   0.054  -0.111
    1UNL    H17   56   0.068   0.185   0.161
    1UNL    H18   57  -0.034   0.263  -0.105
    1UNL    H19   58   0.138   0.399  -0.082
    1UNL    H20   59  -0.107   0.311   0.189
    1UNL    H21   60  -0.165   0.413   0.073
    1UNL    H22   61  -0.377   0.363   0.170
    1UNL    H23   62  -0.338   0.207   0.264
    1UNL    H24   63  -0.547   0.258   0.051
    1UNL    H25   64  -0.585   0.189   0.202
    1UNL    H26   65  -0.311  -0.187  -0.036
    1UNL    H27   66  -0.559  -0.361  -0.063
    1UNL    H28   67  -0.797  -0.344  -0.045
    1UNL    H29   68  -0.913  -0.147   0.047
    1UNL    H30   69  -0.755   0.048   0.115
    1UNL    H31   70  -0.190   0.044   0.171
    1UNL    H32   71  -0.148   0.093  -0.124
    1UNL    H33   72  -0.157  -0.069  -0.058
    1UNL    H34   73   0.026  -0.033   0.102
   0.00000   0.00000   0.00000   0.00000   0.00000   0.00000   0.00000   0.00000   0.00000
Generated with MDTraj, t= 82.0
 73
    1UNL     C1    1   0.004  -0.347  -0.148
    1UNL     O1    2  -0.011  -0.214  -0.123
    1UNL     C2    3   0.108  -0.152  -0.166
    1UNL     O2    4   0.208  -0.202  -0.213
    1UNL     C3    5   0.117  -0.011  -0.127
    1UNL     C4    6   0.211   0.076  -0.174
    1UNL     O3    7   0.250   0.190  -0.119
    1UNL     C5    8   0.221   0.181   0.019
    1UNL     O4    9   0.290   0.082   0.090
    1UNL     C6   10   0.427   0.097   0.093
    1UNL     O5   11   0.479  -0.016   0.166
    1UNL     C7   12   0.455  -0.150   0.115
    1UNL     C8   13   0.309  -0.192   0.127
    1UNL     O6   14   0.282  -0.326   0.097
    1UNL     C9   15   0.504  -0.155  -0.038
    1UNL     O7   16   0.462  -0.276  -0.090
    1UNL    C10   17   0.476  -0.029  -0.129
    1UNL     O8   18   0.572  -0.016  -0.231
    1UNL    C11   19   0.496   0.107  -0.046
    1UNL     O9   20   0.630   0.159  -0.057
    1UNL    C12   21   0.075   0.170   0.043
    1UNL    C13   22  -0.009   0.288   0.004
    1UNL    O10   23   0.080   0.405   0.019
    1UNL    C14   24  -0.129   0.293   0.098
    1UNL     N1   25  -0.253   0.226   0.066
    1UNL    C15   26  -0.355   0.254   0.168
    1UNL    C16   27  -0.487   0.206   0.109
    1UNL    C17   28  -0.476   0.066   0.062
    1UNL    C18   29  -0.352   0.004   0.057
    1UNL     N2   30  -0.371  -0.131   0.020
    1UNL    C19   31  -0.506  -0.153   0.020
    1UNL    C20   32  -0.577  -0.273   0.005
    1UNL    C21   33  -0.714  -0.267   0.006
    1UNL    C22   34  -0.779  -0.142   0.029
    1UNL    C23   35  -0.716  -0.023   0.051
    1UNL    C24   36  -0.571  -0.029   0.037
    1UNL    C25   37  -0.224   0.076   0.060
    1UNL    C26   38  -0.126   0.035  -0.051
    1UNL    C27   39   0.028   0.036  -0.017
    1UNL     H1   40   0.097  -0.388  -0.096
    1UNL     H2   41   0.029  -0.361  -0.252
    1UNL     H3   42  -0.083  -0.412  -0.113
    1UNL     H4   43   0.259   0.050  -0.266
    1UNL     H5   44   0.246   0.283   0.069
    1UNL     H6   45   0.461   0.179   0.157
    1UNL     H7   46   0.517  -0.212   0.179
    1UNL     H8   47   0.244  -0.127   0.070
    1UNL     H9   48   0.270  -0.176   0.232
    1UNL    H10   49   0.344  -0.361   0.030
    1UNL    H11   50   0.611  -0.173  -0.028
    1UNL    H12   51   0.374  -0.251  -0.138
    1UNL    H13   52   0.387  -0.051  -0.178
    1UNL    H14   53   0.581  -0.107  -0.267
    1UNL    H15   54   0.444   0.185  -0.104
    1UNL    H16   55   0.678   0.096  -0.110
    1UNL    H17   56   0.068   0.182   0.145
    1UNL    H18   57  -0.046   0.276  -0.101
    1UNL    H19   58   0.155   0.399  -0.046
    1UNL    H20   59  -0.098   0.280   0.202
    1UNL    H21   60  -0.156   0.399   0.089
    1UNL    H22   61  -0.352   0.366   0.175
    1UNL    H23   62  -0.329   0.208   0.265
    1UNL    H24   63  -0.523   0.261   0.023
    1UNL    H25   64  -0.571   0.219   0.180
    1UNL    H26   65  -0.308  -0.205  -0.000
    1UNL    H27   66  -0.519  -0.361  -0.026
    1UNL    H28   67  -0.776  -0.351  -0.003
    1UNL    H29   68  -0.878  -0.146   0.052
    1UNL    H30   69  -0.774   0.065   0.086
    1UNL    H31   70  -0.166   0.052   0.153
    1UNL    H32   71  -0.137   0.104  -0.141
    1UNL    H33   72  -0.140  -0.070  -0.086
    1UNL    H34   73   0.051  -0.036   0.071
   0.00000   0.00000   0.00000   0.00000   0.00000   0.00000   0.00000   0.00000   0.00000
Generated with MDTraj, t= 83.0
 73
    1UNL     C1    1  -0.004  -0.347  -0.214
    1UNL     O1    2  -0.024  -0.220  -0.165
    1UNL     C2    3   0.084  -0.141  -0.193
    1UNL     O2    4   0.179  -0.182  -0.255
    1UNL     C3    5   0.089  -0.004  -0.133
    1UNL     C4    6   0.190   0.080  -0.174
    1UNL     O3    7   0.239   0.199  -0.121
    1UNL     C5    8   0.215   0.179   0.015
    1UNL     O4    9   0.290   0.062   0.061
    1UNL     C6   10   0.426   0.092   0.087
    1UNL     O5   11   0.490  -0.020   0.163
    1UNL     C7   12   0.469  -0.153   0.120
    1UNL     C8   13   0.324  -0.199   0.150
    1UNL     O6   14   0.311  -0.338   0.147
    1UNL     C9   15   0.530  -0.167  -0.025
    1UNL     O7   16   0.483  -0.283  -0.083
    1UNL    C10   17   0.500  -0.048  -0.120
    1UNL     O8   18   0.583  -0.030  -0.237
    1UNL    C11   19   0.500   0.094  -0.046
    1UNL     O9   20   0.628   0.132  -0.011
    1UNL    C12   21   0.062   0.165   0.045
    1UNL    C13   22  -0.015   0.304   0.015
    1UNL    O10   23   0.090   0.408   0.026
    1UNL    C14   24  -0.130   0.330   0.109
    1UNL     N1   25  -0.252   0.245   0.079
    1UNL    C15   26  -0.378   0.285   0.135
    1UNL    C16   27  -0.500   0.212   0.067
    1UNL    C17   28  -0.483   0.068   0.061
    1UNL    C18   29  -0.357   0.016   0.067
    1UNL     N2   30  -0.356  -0.120   0.057
    1UNL    C19   31  -0.492  -0.160   0.052
    1UNL    C20   32  -0.559  -0.282   0.028
    1UNL    C21   33  -0.694  -0.284   0.021
    1UNL    C22   34  -0.768  -0.164   0.023
    1UNL    C23   35  -0.710  -0.044   0.045
    1UNL    C24   36  -0.571  -0.042   0.059
    1UNL    C25   37  -0.225   0.091   0.069
    1UNL    C26   38  -0.147   0.067  -0.055
    1UNL    C27   39   0.005   0.048  -0.021
    1UNL     H1   40   0.099  -0.385  -0.183
    1UNL     H2   41   0.003  -0.344  -0.319
    1UNL     H3   42  -0.077  -0.420  -0.177
    1UNL     H4   43   0.236   0.065  -0.273
    1UNL     H5   44   0.251   0.272   0.070
    1UNL     H6   45   0.431   0.180   0.154
    1UNL     H7   46   0.542  -0.207   0.185
    1UNL     H8   47   0.256  -0.154   0.081
    1UNL     H9   48   0.290  -0.162   0.249
    1UNL    H10   49   0.369  -0.368   0.073
    1UNL    H11   50   0.637  -0.178  -0.016
    1UNL    H12   51   0.399  -0.273  -0.128
    1UNL    H13   52   0.406  -0.061  -0.165
    1UNL    H14   53   0.580  -0.111  -0.294
    1UNL    H15   54   0.447   0.167  -0.110
    1UNL    H16   55   0.694   0.087  -0.072
    1UNL    H17   56   0.057   0.157   0.148
    1UNL    H18   57  -0.059   0.300  -0.085
    1UNL    H19   58   0.152   0.398  -0.044
    1UNL    H20   59  -0.100   0.326   0.215
    1UNL    H21   60  -0.161   0.434   0.098
    1UNL    H22   61  -0.392   0.394   0.108
    1UNL    H23   62  -0.375   0.273   0.242
    1UNL    H24   63  -0.519   0.261  -0.028
    1UNL    H25   64  -0.594   0.236   0.121
    1UNL    H26   65  -0.285  -0.189   0.068
    1UNL    H27   66  -0.506  -0.367  -0.008
    1UNL    H28   67  -0.741  -0.384   0.008
    1UNL    H29   68  -0.875  -0.171   0.013
    1UNL    H30   69  -0.759   0.049   0.063
    1UNL    H31   70  -0.172   0.059   0.164
    1UNL    H32   71  -0.175   0.140  -0.139
    1UNL    H33   72  -0.177  -0.036  -0.087
    1UNL    H34   73   0.017  -0.031   0.063
   0.00000   0.00000   0.00000   0.00000   0.00000   0.00000   0.00000   0.00000   0.00000
Generated with MDTraj, t= 84.0
 73
    1UNL     C1    1  -0.038  -0.311  -0.257
    1UNL     O1    2  -0.030  -0.198  -0.174
    1UNL     C2    3   0.076  -0.116  -0.205
    1UNL     O2    4   0.163  -0.151  -0.280
    1UNL     C3    5   0.098   0.015  -0.135
    1UNL     C4    6   0.198   0.099  -0.183
    1UNL     O3    7   0.238   0.211  -0.105
    1UNL     C5    8   0.219   0.189   0.031
    1UNL     O4    9   0.289   0.080   0.089
    1UNL     C6   10   0.433   0.090   0.094
    1UNL     O5   11   0.487  -0.016   0.173
    1UNL     C7   12   0.475  -0.152   0.135
    1UNL     C8   13   0.335  -0.210   0.136
    1UNL     O6   14   0.336  -0.357   0.128
    1UNL     C9   15   0.526  -0.170  -0.011
    1UNL     O7   16   0.488  -0.293  -0.082
    1UNL    C10   17   0.481  -0.055  -0.102
    1UNL     O8   18   0.544  -0.073  -0.230
    1UNL    C11   19   0.510   0.088  -0.037
    1UNL     O9   20   0.647   0.118  -0.015
    1UNL    C12   21   0.069   0.170   0.060
    1UNL    C13   22  -0.005   0.303   0.011
    1UNL    O10   23   0.081   0.419   0.026
    1UNL    C14   24  -0.131   0.322   0.083
    1UNL     N1   25  -0.254   0.242   0.049
    1UNL    C15   26  -0.388   0.301   0.085
    1UNL    C16   27  -0.514   0.214   0.051
    1UNL    C17   28  -0.478   0.073   0.063
    1UNL    C18   29  -0.352   0.016   0.071
    1UNL     N2   30  -0.364  -0.124   0.088
    1UNL    C19   31  -0.497  -0.163   0.074
    1UNL    C20   32  -0.549  -0.289   0.067
    1UNL    C21   33  -0.686  -0.301   0.042
    1UNL    C22   34  -0.760  -0.187   0.028
    1UNL    C23   35  -0.706  -0.061   0.029
    1UNL    C24   36  -0.570  -0.039   0.058
    1UNL    C25   37  -0.222   0.090   0.063
    1UNL    C26   38  -0.138   0.034  -0.046
    1UNL    C27   39   0.017   0.043  -0.010
    1UNL     H1   40   0.034  -0.389  -0.220
    1UNL     H2   41  -0.003  -0.290  -0.351
    1UNL     H3   42  -0.135  -0.354  -0.255
    1UNL     H4   43   0.250   0.087  -0.280
    1UNL     H5   44   0.268   0.275   0.083
    1UNL     H6   45   0.467   0.185   0.142
    1UNL     H7   46   0.548  -0.208   0.205
    1UNL     H8   47   0.276  -0.167   0.059
    1UNL     H9   48   0.285  -0.186   0.231
    1UNL    H10   49   0.391  -0.390   0.053
    1UNL    H11   50   0.632  -0.173  -0.014
    1UNL    H12   51   0.399  -0.292  -0.130
    1UNL    H13   52   0.378  -0.057  -0.116
    1UNL    H14   53   0.569  -0.168  -0.238
    1UNL    H15   54   0.469   0.173  -0.091
    1UNL    H16   55   0.706   0.092  -0.089
    1UNL    H17   56   0.065   0.156   0.164
    1UNL    H18   57  -0.034   0.284  -0.091
    1UNL    H19   58   0.153   0.418  -0.040
    1UNL    H20   59  -0.117   0.319   0.192
    1UNL    H21   60  -0.157   0.426   0.064
    1UNL    H22   61  -0.400   0.393   0.020
    1UNL    H23   62  -0.394   0.336   0.187
    1UNL    H24   63  -0.553   0.233  -0.048
    1UNL    H25   64  -0.599   0.250   0.113
    1UNL    H26   65  -0.285  -0.184   0.076
    1UNL    H27   66  -0.479  -0.370   0.083
    1UNL    H28   67  -0.723  -0.397   0.020
    1UNL    H29   68  -0.876  -0.193   0.016
    1UNL    H30   69  -0.768   0.025   0.012
    1UNL    H31   70  -0.165   0.073   0.161
    1UNL    H32   71  -0.163   0.087  -0.142
    1UNL    H33   72  -0.178  -0.070  -0.067
    1UNL    H34   73   0.041  -0.042   0.063
   0.00000   0.00000   0.00000   0.00000   0.00000   0.00000   0.00000   0.00000   0.00000
Generated with MDTraj, t= 85.0
 73
    1UNL     C1    1  -0.062  -0.266  -0.277
    1UNL     O1    2  -0.033  -0.161  -0.186
    1UNL     C2    3   0.083  -0.089  -0.217
    1UNL     O2    4   0.166  -0.133  -0.294
    1UNL     C3    5   0.113   0.026  -0.129
    1UNL     C4    6   0.212   0.110  -0.164
    1UNL     O3    7   0.259   0.206  -0.078
    1UNL     C5    8   0.224   0.184   0.066
    1UNL     O4    9   0.284   0.068   0.124
    1UNL     C6   10   0.425   0.077   0.121
    1UNL     O5   11   0.495  -0.031   0.181
    1UNL     C7   12   0.473  -0.163   0.125
    1UNL     C8   13   0.325  -0.202   0.149
    1UNL     O6   14   0.300  -0.338   0.124
    1UNL     C9   15   0.524  -0.169  -0.022
    1UNL     O7   16   0.518  -0.300  -0.081
    1UNL    C10   17   0.449  -0.063  -0.099
    1UNL     O8   18   0.507  -0.048  -0.225
    1UNL    C11   19   0.481   0.078  -0.027
    1UNL     O9   20   0.613   0.101  -0.043
    1UNL    C12   21   0.067   0.175   0.071
    1UNL    C13   22  -0.007   0.297  -0.007
    1UNL    O10   23   0.073   0.417  -0.005
    1UNL    C14   24  -0.140   0.331   0.053
    1UNL     N1   25  -0.246   0.231   0.042
    1UNL    C15   26  -0.382   0.280   0.069
    1UNL    C16   27  -0.483   0.194  -0.004
    1UNL    C17   28  -0.466   0.053   0.033
    1UNL    C18   29  -0.341   0.002   0.063
    1UNL     N2   30  -0.349  -0.126   0.105
    1UNL    C19   31  -0.485  -0.162   0.077
    1UNL    C20   32  -0.544  -0.287   0.096
    1UNL    C21   33  -0.681  -0.292   0.081
    1UNL    C22   34  -0.758  -0.182   0.052
    1UNL    C23   35  -0.696  -0.061   0.023
    1UNL    C24   36  -0.559  -0.050   0.047
    1UNL    C25   37  -0.214   0.080   0.071
    1UNL    C26   38  -0.117   0.019  -0.035
    1UNL    C27   39   0.032   0.038  -0.008
    1UNL     H1   40   0.025  -0.337  -0.280
    1UNL     H2   41  -0.078  -0.233  -0.372
    1UNL     H3   42  -0.147  -0.317  -0.238
    1UNL     H4   43   0.257   0.091  -0.261
    1UNL     H5   44   0.267   0.260   0.130
    1UNL     H6   45   0.469   0.172   0.163
    1UNL     H7   46   0.540  -0.234   0.186
    1UNL     H8   47   0.264  -0.141   0.087
    1UNL     H9   48   0.306  -0.185   0.256
    1UNL    H10   49   0.349  -0.366   0.044
    1UNL    H11   50   0.628  -0.139  -0.025
    1UNL    H12   51   0.453  -0.305  -0.158
    1UNL    H13   52   0.348  -0.086  -0.105
    1UNL    H14   53   0.500  -0.136  -0.267
    1UNL    H15   54   0.432   0.146  -0.095
    1UNL    H16   55   0.628   0.089  -0.138
    1UNL    H17   56   0.040   0.180   0.172
    1UNL    H18   57  -0.018   0.258  -0.106
    1UNL    H19   58   0.166   0.391  -0.039
    1UNL    H20   59  -0.125   0.351   0.161
    1UNL    H21   60  -0.175   0.423   0.008
    1UNL    H22   61  -0.407   0.391   0.063
    1UNL    H23   62  -0.399   0.253   0.171
    1UNL    H24   63  -0.470   0.214  -0.111
    1UNL    H25   64  -0.588   0.226   0.006
    1UNL    H26   65  -0.267  -0.182   0.128
    1UNL    H27   66  -0.493  -0.375   0.131
    1UNL    H28   67  -0.736  -0.389   0.086
    1UNL    H29   68  -0.857  -0.187   0.037
    1UNL    H30   69  -0.751   0.029  -0.012
    1UNL    H31   70  -0.152   0.070   0.167
    1UNL    H32   71  -0.142   0.087  -0.120
    1UNL    H33   72  -0.149  -0.086  -0.068
    1UNL    H34   73   0.054  -0.050   0.062
   0.00000   0.00000   0.00000   0.00000   0.00000   0.00000   0.00000   0.00000   0.00000
Generated with MDTraj, t= 86.0
 73
    1UNL     C1    1  -0.025  -0.247  -0.323
    1UNL     O1    2  -0.023  -0.166  -0.207
    1UNL     C2    3   0.087  -0.081  -0.218
    1UNL     O2    4   0.163  -0.090  -0.314
    1UNL     C3    5   0.118   0.015  -0.112
    1UNL     C4    6   0.216   0.100  -0.155
    1UNL     O3    7   0.271   0.199  -0.083
    1UNL     C5    8   0.238   0.183   0.054
    1UNL     O4    9   0.292   0.067   0.099
    1UNL     C6   10   0.433   0.072   0.112
    1UNL     O5   11   0.491  -0.032   0.190
    1UNL     C7   12   0.457  -0.162   0.142
    1UNL     C8   13   0.309  -0.208   0.152
    1UNL     O6   14   0.286  -0.328   0.089
    1UNL     C9   15   0.503  -0.169  -0.006
    1UNL     O7   16   0.469  -0.284  -0.077
    1UNL    C10   17   0.450  -0.057  -0.096
    1UNL     O8   18   0.514  -0.057  -0.218
    1UNL    C11   19   0.494   0.081  -0.032
    1UNL     O9   20   0.631   0.097  -0.036
    1UNL    C12   21   0.081   0.180   0.071
    1UNL    C13   22  -0.008   0.295   0.005
    1UNL    O10   23   0.074   0.408  -0.008
    1UNL    C14   24  -0.144   0.327   0.073
    1UNL     N1   25  -0.244   0.223   0.028
    1UNL    C15   26  -0.379   0.280   0.033
    1UNL    C16   27  -0.491   0.189  -0.015
    1UNL    C17   28  -0.464   0.045   0.020
    1UNL    C18   29  -0.343   0.004   0.076
    1UNL     N2   30  -0.351  -0.131   0.112
    1UNL    C19   31  -0.484  -0.169   0.099
    1UNL    C20   32  -0.548  -0.285   0.141
    1UNL    C21   33  -0.686  -0.291   0.124
    1UNL    C22   34  -0.758  -0.190   0.052
    1UNL    C23   35  -0.695  -0.079   0.010
    1UNL    C24   36  -0.559  -0.059   0.045
    1UNL    C25   37  -0.214   0.085   0.076
    1UNL    C26   38  -0.119   0.031  -0.027
    1UNL    C27   39   0.033   0.039   0.009
    1UNL     H1   40   0.079  -0.296  -0.336
    1UNL     H2   41  -0.040  -0.188  -0.408
    1UNL     H3   42  -0.103  -0.321  -0.314
    1UNL     H4   43   0.236   0.101  -0.260
    1UNL     H5   44   0.276   0.264   0.110
    1UNL     H6   45   0.455   0.158   0.179
    1UNL     H7   46   0.518  -0.234   0.207
    1UNL     H8   47   0.260  -0.138   0.089
    1UNL     H9   48   0.271  -0.210   0.255
    1UNL    H10   49   0.302  -0.406   0.149
    1UNL    H11   50   0.613  -0.164  -0.007
    1UNL    H12   51   0.381  -0.310  -0.049
    1UNL    H13   52   0.346  -0.066  -0.103
    1UNL    H14   53   0.467  -0.121  -0.276
    1UNL    H15   54   0.440   0.162  -0.074
    1UNL    H16   55   0.670   0.070  -0.124
    1UNL    H17   56   0.063   0.197   0.173
    1UNL    H18   57  -0.025   0.263  -0.097
    1UNL    H19   58   0.148   0.388  -0.064
    1UNL    H20   59  -0.128   0.323   0.183
    1UNL    H21   60  -0.176   0.427   0.050
    1UNL    H22   61  -0.384   0.376  -0.029
    1UNL    H23   62  -0.405   0.318   0.129
    1UNL    H24   63  -0.520   0.189  -0.121
    1UNL    H25   64  -0.589   0.229   0.023
    1UNL    H26   65  -0.270  -0.186   0.147
    1UNL    H27   66  -0.496  -0.369   0.180
    1UNL    H28   67  -0.742  -0.373   0.159
    1UNL    H29   68  -0.864  -0.205   0.025
    1UNL    H30   69  -0.750  -0.019  -0.052
    1UNL    H31   70  -0.162   0.089   0.180
    1UNL    H32   71  -0.125   0.093  -0.119
    1UNL    H33   72  -0.152  -0.074  -0.061
    1UNL    H34   73   0.038  -0.047   0.086
   0.00000   0.00000   0.00000   0.00000   0.00000   0.00000   0.00000   0.00000   0.00000
Generated with MDTraj, t= 87.0
 73
    1UNL     C1    1  -0.020  -0.254  -0.307
    1UNL     O1    2   0.001  -0.155  -0.215
    1UNL     C2    3   0.091  -0.066  -0.255
    1UNL     O2    4   0.165  -0.069  -0.352
    1UNL     C3    5   0.114   0.039  -0.158
    1UNL     C4    6   0.217   0.128  -0.181
    1UNL     O3    7   0.265   0.216  -0.080
    1UNL     C5    8   0.224   0.183   0.058
    1UNL     O4    9   0.281   0.064   0.107
    1UNL     C6   10   0.422   0.071   0.117
    1UNL     O5   11   0.481  -0.036   0.191
    1UNL     C7   12   0.444  -0.164   0.129
    1UNL     C8   13   0.294  -0.185   0.128
    1UNL     O6   14   0.258  -0.315   0.116
    1UNL     C9   15   0.503  -0.178  -0.015
    1UNL     O7   16   0.472  -0.304  -0.076
    1UNL    C10   17   0.471  -0.059  -0.104
    1UNL     O8   18   0.552  -0.069  -0.219
    1UNL    C11   19   0.497   0.072  -0.019
    1UNL     O9   20   0.631   0.087   0.000
    1UNL    C12   21   0.070   0.161   0.057
    1UNL    C13   22   0.005   0.291   0.010
    1UNL    O10   23   0.075   0.408   0.040
    1UNL    C14   24  -0.140   0.311   0.066
    1UNL     N1   25  -0.245   0.220   0.009
    1UNL    C15   26  -0.383   0.272   0.028
    1UNL    C16   27  -0.475   0.166  -0.042
    1UNL    C17   28  -0.465   0.044   0.038
    1UNL    C18   29  -0.344   0.001   0.085
    1UNL     N2   30  -0.360  -0.122   0.148
    1UNL    C19   31  -0.493  -0.156   0.138
    1UNL    C20   32  -0.552  -0.282   0.166
    1UNL    C21   33  -0.677  -0.300   0.121
    1UNL    C22   34  -0.756  -0.197   0.062
    1UNL    C23   35  -0.700  -0.078   0.033
    1UNL    C24   36  -0.563  -0.057   0.064
    1UNL    C25   37  -0.213   0.085   0.055
    1UNL    C26   38  -0.120   0.026  -0.055
    1UNL    C27   39   0.033   0.041  -0.032
    1UNL     H1   40   0.071  -0.328  -0.311
    1UNL     H2   41  -0.032  -0.203  -0.401
    1UNL     H3   42  -0.115  -0.301  -0.279
    1UNL     H4   43   0.273   0.134  -0.273
    1UNL     H5   44   0.246   0.262   0.121
    1UNL     H6   45   0.446   0.158   0.180
    1UNL     H7   46   0.489  -0.242   0.194
    1UNL     H8   47   0.250  -0.132   0.048
    1UNL     H9   48   0.255  -0.146   0.223
    1UNL    H10   49   0.269  -0.359   0.204
    1UNL    H11   50   0.615  -0.188  -0.005
    1UNL    H12   51   0.379  -0.325  -0.050
    1UNL    H13   52   0.374  -0.066  -0.143
    1UNL    H14   53   0.557  -0.165  -0.240
    1UNL    H15   54   0.469   0.159  -0.077
    1UNL    H16   55   0.687   0.054  -0.077
    1UNL    H17   56   0.038   0.145   0.157
    1UNL    H18   57   0.012   0.298  -0.102
    1UNL    H19   58   0.173   0.405   0.013
    1UNL    H20   59  -0.140   0.306   0.177
    1UNL    H21   60  -0.163   0.412   0.038
    1UNL    H22   61  -0.398   0.379  -0.010
    1UNL    H23   62  -0.404   0.284   0.131
    1UNL    H24   63  -0.439   0.157  -0.145
    1UNL    H25   64  -0.584   0.177  -0.068
    1UNL    H26   65  -0.293  -0.193   0.184
    1UNL    H27   66  -0.489  -0.360   0.209
    1UNL    H28   67  -0.728  -0.397   0.139
    1UNL    H29   68  -0.866  -0.216   0.069
    1UNL    H30   69  -0.750   0.013  -0.010
    1UNL    H31   70  -0.169   0.092   0.161
    1UNL    H32   71  -0.152   0.065  -0.155
    1UNL    H33   72  -0.133  -0.088  -0.064
    1UNL    H34   73   0.063  -0.057   0.023
   0.00000   0.00000   0.00000   0.00000   0.00000   0.00000   0.00000   0.00000   0.00000
Generated with MDTraj, t= 88.0
 73
    1UNL     C1    1   0.016  -0.273  -0.334
    1UNL     O1    2   0.003  -0.165  -0.233
    1UNL     C2    3   0.077  -0.056  -0.265
    1UNL     O2    4   0.131  -0.042  -0.375
    1UNL     C3    5   0.102   0.039  -0.158
    1UNL     C4    6   0.191   0.140  -0.180
    1UNL     O3    7   0.246   0.228  -0.091
    1UNL     C5    8   0.218   0.194   0.040
    1UNL     O4    9   0.280   0.076   0.098
    1UNL     C6   10   0.416   0.059   0.119
    1UNL     O5   11   0.458  -0.053   0.202
    1UNL     C7   12   0.429  -0.181   0.137
    1UNL     C8   13   0.283  -0.214   0.143
    1UNL     O6   14   0.249  -0.348   0.103
    1UNL     C9   15   0.503  -0.192  -0.001
    1UNL     O7   16   0.490  -0.323  -0.053
    1UNL    C10   17   0.475  -0.076  -0.094
    1UNL     O8   18   0.574  -0.080  -0.198
    1UNL    C11   19   0.491   0.066  -0.017
    1UNL     O9   20   0.619   0.115   0.002
    1UNL    C12   21   0.066   0.173   0.054
    1UNL    C13   22   0.004   0.308   0.014
    1UNL    O10   23   0.068   0.424   0.047
    1UNL    C14   24  -0.137   0.319   0.077
    1UNL     N1   25  -0.242   0.228   0.025
    1UNL    C15   26  -0.381   0.278   0.015
    1UNL    C16   27  -0.483   0.173  -0.039
    1UNL    C17   28  -0.460   0.041   0.019
    1UNL    C18   29  -0.334   0.004   0.064
    1UNL     N2   30  -0.337  -0.124   0.119
    1UNL    C19   31  -0.463  -0.177   0.110
    1UNL    C20   32  -0.543  -0.274   0.181
    1UNL    C21   33  -0.679  -0.281   0.179
    1UNL    C22   34  -0.749  -0.194   0.093
    1UNL    C23   35  -0.682  -0.088   0.033
    1UNL    C24   36  -0.538  -0.074   0.044
    1UNL    C25   37  -0.212   0.093   0.061
    1UNL    C26   38  -0.117   0.037  -0.054
    1UNL    C27   39   0.028   0.051  -0.027
    1UNL     H1   40   0.127  -0.304  -0.349
    1UNL     H2   41  -0.019  -0.221  -0.424
    1UNL     H3   42  -0.049  -0.361  -0.313
    1UNL     H4   43   0.236   0.158  -0.279
    1UNL     H5   44   0.258   0.277   0.090
    1UNL     H6   45   0.458   0.146   0.171
    1UNL     H7   46   0.479  -0.247   0.206
    1UNL     H8   47   0.228  -0.143   0.088
    1UNL     H9   48   0.245  -0.200   0.245
    1UNL    H10   49   0.299  -0.412   0.155
    1UNL    H11   50   0.614  -0.189   0.028
    1UNL    H12   51   0.398  -0.334  -0.094
    1UNL    H13   52   0.382  -0.083  -0.144
    1UNL    H14   53   0.584  -0.174  -0.227
    1UNL    H15   54   0.448   0.139  -0.086
    1UNL    H16   55   0.681   0.078  -0.059
    1UNL    H17   56   0.049   0.149   0.156
    1UNL    H18   57  -0.001   0.310  -0.100
    1UNL    H19   58   0.143   0.439  -0.012
    1UNL    H20   59  -0.130   0.312   0.187
    1UNL    H21   60  -0.176   0.416   0.053
    1UNL    H22   61  -0.386   0.375  -0.045
    1UNL    H23   62  -0.412   0.310   0.112
    1UNL    H24   63  -0.499   0.152  -0.146
    1UNL    H25   64  -0.584   0.213  -0.015
    1UNL    H26   65  -0.268  -0.168   0.184
    1UNL    H27   66  -0.486  -0.346   0.236
    1UNL    H28   67  -0.733  -0.347   0.245
    1UNL    H29   68  -0.852  -0.197   0.086
    1UNL    H30   69  -0.739  -0.003   0.003
    1UNL    H31   70  -0.165   0.082   0.166
    1UNL    H32   71  -0.145   0.089  -0.150
    1UNL    H33   72  -0.152  -0.070  -0.074
    1UNL    H34   73   0.068  -0.038   0.038
   0.00000   0.00000   0.00000   0.00000   0.00000   0.00000   0.00000   0.00000   0.00000
Generated with MDTraj, t= 89.0
 73
    1UNL     C1    1  -0.002  -0.248  -0.323
    1UNL     O1    2   0.028  -0.149  -0.229
    1UNL     C2    3   0.099  -0.039  -0.274
    1UNL     O2    4   0.125  -0.019  -0.393
    1UNL     C3    5   0.128   0.050  -0.159
    1UNL     C4    6   0.230   0.141  -0.156
    1UNL     O3    7   0.265   0.230  -0.066
    1UNL     C5    8   0.206   0.179   0.060
    1UNL     O4    9   0.269   0.055   0.099
    1UNL     C6   10   0.407   0.058   0.109
    1UNL     O5   11   0.448  -0.046   0.202
    1UNL     C7   12   0.425  -0.176   0.149
    1UNL     C8   13   0.280  -0.218   0.124
    1UNL     O6   14   0.280  -0.356   0.075
    1UNL     C9   15   0.520  -0.187   0.022
    1UNL     O7   16   0.525  -0.321  -0.022
    1UNL    C10   17   0.480  -0.087  -0.088
    1UNL     O8   18   0.560  -0.090  -0.206
    1UNL    C11   19   0.493   0.060  -0.026
    1UNL     O9   20   0.624   0.090   0.013
    1UNL    C12   21   0.054   0.169   0.051
    1UNL    C13   22  -0.006   0.302  -0.006
    1UNL    O10   23   0.071   0.412   0.011
    1UNL    C14   24  -0.146   0.326   0.056
    1UNL     N1   25  -0.255   0.236   0.014
    1UNL    C15   26  -0.398   0.263   0.047
    1UNL    C16   27  -0.487   0.175  -0.033
    1UNL    C17   28  -0.466   0.037   0.014
    1UNL    C18   29  -0.341  -0.006   0.048
    1UNL     N2   30  -0.347  -0.128   0.121
    1UNL    C19   31  -0.479  -0.159   0.125
    1UNL    C20   32  -0.530  -0.276   0.188
    1UNL    C21   33  -0.667  -0.298   0.175
    1UNL    C22   34  -0.747  -0.194   0.119
    1UNL    C23   35  -0.696  -0.074   0.070
    1UNL    C24   36  -0.558  -0.061   0.065
    1UNL    C25   37  -0.223   0.093   0.027
    1UNL    C26   38  -0.121   0.058  -0.090
    1UNL    C27   39   0.020   0.048  -0.046
    1UNL     H1   40   0.082  -0.276  -0.393
    1UNL     H2   41  -0.090  -0.206  -0.375
    1UNL     H3   42  -0.031  -0.334  -0.261
    1UNL     H4   43   0.275   0.157  -0.255
    1UNL     H5   44   0.235   0.259   0.126
    1UNL     H6   45   0.422   0.151   0.162
    1UNL     H7   46   0.462  -0.245   0.220
    1UNL     H8   47   0.236  -0.161   0.045
    1UNL     H9   48   0.211  -0.194   0.208
    1UNL    H10   49   0.261  -0.425   0.143
    1UNL    H11   50   0.627  -0.163   0.055
    1UNL    H12   51   0.439  -0.361  -0.031
    1UNL    H13   52   0.374  -0.093  -0.108
    1UNL    H14   53   0.554  -0.181  -0.244
    1UNL    H15   54   0.443   0.140  -0.082
    1UNL    H16   55   0.697   0.070  -0.055
    1UNL    H17   56   0.018   0.153   0.150
    1UNL    H18   57  -0.027   0.289  -0.116
    1UNL    H19   58   0.162   0.390  -0.024
    1UNL    H20   59  -0.146   0.329   0.165
    1UNL    H21   60  -0.185   0.422   0.024
    1UNL    H22   61  -0.427   0.369   0.024
    1UNL    H23   62  -0.406   0.246   0.153
    1UNL    H24   63  -0.459   0.193  -0.138
    1UNL    H25   64  -0.595   0.200  -0.036
    1UNL    H26   65  -0.279  -0.196   0.166
    1UNL    H27   66  -0.477  -0.358   0.235
    1UNL    H28   67  -0.706  -0.396   0.185
    1UNL    H29   68  -0.856  -0.215   0.100
    1UNL    H30   69  -0.759   0.003   0.035
    1UNL    H31   70  -0.169   0.082   0.127
    1UNL    H32   71  -0.148   0.128  -0.175
    1UNL    H33   72  -0.155  -0.041  -0.135
    1UNL    H34   73   0.033  -0.051   0.017
   0.00000   0.00000   0.00000   0.00000   0.00000   0.00000   0.00000   0.00000   0.00000
Generated with MDTraj, t= 90.0
 73
    1UNL     C1    1   0.001  -0.236  -0.374
    1UNL     O1    2  -0.001  -0.155  -0.262
    1UNL     C2    3   0.085  -0.046  -0.279
    1UNL     O2    4   0.158  -0.026  -0.379
    1UNL     C3    5   0.109   0.049  -0.165
    1UNL     C4    6   0.211   0.137  -0.179
    1UNL     O3    7   0.259   0.216  -0.085
    1UNL     C5    8   0.212   0.181   0.048
    1UNL     O4    9   0.264   0.059   0.105
    1UNL     C6   10   0.401   0.057   0.125
    1UNL     O5   11   0.449  -0.047   0.218
    1UNL     C7   12   0.441  -0.180   0.159
    1UNL     C8   13   0.292  -0.226   0.140
    1UNL     O6   14   0.284  -0.344   0.062
    1UNL     C9   15   0.528  -0.192   0.029
    1UNL     O7   16   0.539  -0.325  -0.029
    1UNL    C10   17   0.478  -0.083  -0.076
    1UNL     O8   18   0.569  -0.086  -0.190
    1UNL    C11   19   0.484   0.057  -0.008
    1UNL     O9   20   0.614   0.088   0.016
    1UNL    C12   21   0.060   0.179   0.048
    1UNL    C13   22  -0.007   0.308  -0.016
    1UNL    O10   23   0.064   0.425   0.012
    1UNL    C14   24  -0.154   0.327   0.031
    1UNL     N1   25  -0.252   0.223  -0.007
    1UNL    C15   26  -0.387   0.285   0.024
    1UNL    C16   27  -0.509   0.191   0.020
    1UNL    C17   28  -0.471   0.048   0.040
    1UNL    C18   29  -0.344   0.005   0.057
    1UNL     N2   30  -0.344  -0.130   0.082
    1UNL    C19   31  -0.473  -0.171   0.095
    1UNL    C20   32  -0.529  -0.281   0.155
    1UNL    C21   33  -0.670  -0.293   0.177
    1UNL    C22   34  -0.753  -0.187   0.152
    1UNL    C23   35  -0.699  -0.075   0.086
    1UNL    C24   36  -0.560  -0.062   0.063
    1UNL    C25   37  -0.217   0.087   0.048
    1UNL    C26   38  -0.115   0.020  -0.041
    1UNL    C27   39   0.030   0.048  -0.030
    1UNL     H1   40   0.103  -0.269  -0.399
    1UNL     H2   41  -0.047  -0.179  -0.456
    1UNL     H3   42  -0.063  -0.315  -0.343
    1UNL     H4   43   0.267   0.128  -0.270
    1UNL     H5   44   0.231   0.268   0.115
    1UNL     H6   45   0.427   0.152   0.170
    1UNL     H7   46   0.487  -0.252   0.222
    1UNL     H8   47   0.241  -0.148   0.088
    1UNL     H9   48   0.240  -0.244   0.238
    1UNL    H10   49   0.298  -0.427   0.116
    1UNL    H11   50   0.632  -0.162   0.058
    1UNL    H12   51   0.451  -0.370  -0.026
    1UNL    H13   52   0.377  -0.104  -0.113
    1UNL    H14   53   0.589  -0.182  -0.190
    1UNL    H15   54   0.435   0.124  -0.082
    1UNL    H16   55   0.661   0.091  -0.070
    1UNL    H17   56   0.035   0.167   0.150
    1UNL    H18   57  -0.005   0.300  -0.127
    1UNL    H19   58   0.156   0.420  -0.024
    1UNL    H20   59  -0.161   0.338   0.139
    1UNL    H21   60  -0.190   0.423  -0.005
    1UNL    H22   61  -0.399   0.368  -0.052
    1UNL    H23   62  -0.390   0.325   0.125
    1UNL    H24   63  -0.565   0.194  -0.075
    1UNL    H25   64  -0.579   0.225   0.099
    1UNL    H26   65  -0.258  -0.183   0.112
    1UNL    H27   66  -0.461  -0.356   0.193
    1UNL    H28   67  -0.725  -0.389   0.203
    1UNL    H29   68  -0.854  -0.188   0.173
    1UNL    H30   69  -0.771   0.011   0.062
    1UNL    H31   70  -0.184   0.089   0.158
    1UNL    H32   71  -0.136   0.043  -0.152
    1UNL    H33   72  -0.136  -0.090  -0.041
    1UNL    H34   73   0.086  -0.042   0.022
   0.00000   0.00000   0.00000   0.00000   0.00000   0.00000   0.00000   0.00000   0.00000
Generated with MDTraj, t= 91.0
 73
    1UNL     C1    1  -0.040  -0.215  -0.386
    1UNL     O1    2  -0.029  -0.135  -0.270
    1UNL     C2    3   0.088  -0.058  -0.278
    1UNL     O2    4   0.175  -0.054  -0.371
    1UNL     C3    5   0.111   0.029  -0.166
    1UNL     C4    6   0.216   0.114  -0.176
    1UNL     O3    7   0.269   0.194  -0.078
    1UNL     C5    8   0.217   0.168   0.053
    1UNL     O4    9   0.271   0.044   0.105
    1UNL     C6   10   0.404   0.055   0.136
    1UNL     O5   11   0.452  -0.045   0.221
    1UNL     C7   12   0.444  -0.171   0.152
    1UNL     C8   13   0.297  -0.205   0.127
    1UNL     O6   14   0.277  -0.340   0.101
    1UNL     C9   15   0.527  -0.178   0.028
    1UNL     O7   16   0.526  -0.308  -0.037
    1UNL    C10   17   0.485  -0.064  -0.069
    1UNL     O8   18   0.589  -0.066  -0.170
    1UNL    C11   19   0.490   0.073  -0.001
    1UNL     O9   20   0.623   0.115   0.014
    1UNL    C12   21   0.056   0.153   0.050
    1UNL    C13   22  -0.003   0.284  -0.018
    1UNL    O10   23   0.083   0.393  -0.020
    1UNL    C14   24  -0.138   0.326   0.040
    1UNL     N1   25  -0.253   0.238  -0.002
    1UNL    C15   26  -0.382   0.282   0.049
    1UNL    C16   27  -0.503   0.186   0.004
    1UNL    C17   28  -0.476   0.047   0.056
    1UNL    C18   29  -0.344  -0.001   0.050
    1UNL     N2   30  -0.349  -0.130   0.086
    1UNL    C19   31  -0.479  -0.169   0.118
    1UNL    C20   32  -0.541  -0.298   0.126
    1UNL    C21   33  -0.675  -0.304   0.139
    1UNL    C22   34  -0.753  -0.187   0.135
    1UNL    C23   35  -0.697  -0.061   0.137
    1UNL    C24   36  -0.559  -0.053   0.124
    1UNL    C25   37  -0.218   0.091   0.019
    1UNL    C26   38  -0.136   0.043  -0.093
    1UNL    C27   39   0.014   0.035  -0.046
    1UNL     H1   40   0.025  -0.297  -0.364
    1UNL     H2   41   0.001  -0.160  -0.471
    1UNL     H3   42  -0.141  -0.237  -0.408
    1UNL     H4   43   0.268   0.121  -0.268
    1UNL     H5   44   0.235   0.257   0.122
    1UNL     H6   45   0.423   0.151   0.186
    1UNL     H7   46   0.492  -0.240   0.219
    1UNL     H8   47   0.264  -0.154   0.038
    1UNL     H9   48   0.243  -0.169   0.219
    1UNL    H10   49   0.297  -0.390   0.183
    1UNL    H11   50   0.628  -0.151   0.063
    1UNL    H12   51   0.431  -0.341  -0.034
    1UNL    H13   52   0.386  -0.081  -0.120
    1UNL    H14   53   0.601  -0.164  -0.182
    1UNL    H15   54   0.443   0.150  -0.064
    1UNL    H16   55   0.669   0.105  -0.073
    1UNL    H17   56   0.036   0.131   0.152
    1UNL    H18   57  -0.008   0.265  -0.126
    1UNL    H19   58   0.169   0.367  -0.056
    1UNL    H20   59  -0.122   0.353   0.144
    1UNL    H21   60  -0.159   0.424  -0.005
    1UNL    H22   61  -0.412   0.382   0.009
    1UNL    H23   62  -0.377   0.282   0.158
    1UNL    H24   63  -0.516   0.195  -0.105
    1UNL    H25   64  -0.595   0.222   0.053
    1UNL    H26   65  -0.257  -0.180   0.074
    1UNL    H27   66  -0.486  -0.391   0.123
    1UNL    H28   67  -0.710  -0.397   0.166
    1UNL    H29   68  -0.864  -0.192   0.146
    1UNL    H30   69  -0.752   0.025   0.142
    1UNL    H31   70  -0.172   0.082   0.123
    1UNL    H32   71  -0.142   0.123  -0.174
    1UNL    H33   72  -0.158  -0.050  -0.148
    1UNL    H34   73   0.032  -0.069   0.004
   0.00000   0.00000   0.00000   0.00000   0.00000   0.00000   0.00000   0.00000   0.00000
Generated with MDTraj, t= 92.0
 73
    1UNL     C1    1  -0.075  -0.208  -0.403
    1UNL     O1    2  -0.057  -0.133  -0.287
    1UNL     C2    3   0.067  -0.081  -0.279
    1UNL     O2    4   0.157  -0.102  -0.361
    1UNL     C3    5   0.103   0.012  -0.175
    1UNL     C4    6   0.212   0.086  -0.199
    1UNL     O3    7   0.273   0.173  -0.115
    1UNL     C5    8   0.224   0.175   0.020
    1UNL     O4    9   0.268   0.057   0.094
    1UNL     C6   10   0.405   0.070   0.135
    1UNL     O5   11   0.458  -0.032   0.227
    1UNL     C7   12   0.440  -0.159   0.160
    1UNL     C8   13   0.293  -0.209   0.145
    1UNL     O6   14   0.292  -0.351   0.115
    1UNL     C9   15   0.528  -0.167   0.031
    1UNL     O7   16   0.510  -0.290  -0.045
    1UNL    C10   17   0.493  -0.052  -0.063
    1UNL     O8   18   0.596  -0.043  -0.162
    1UNL    C11   19   0.500   0.077   0.009
    1UNL     O9   20   0.629   0.109   0.054
    1UNL    C12   21   0.070   0.166   0.034
    1UNL    C13   22  -0.002   0.298  -0.027
    1UNL    O10   23   0.082   0.410  -0.013
    1UNL    C14   24  -0.136   0.316   0.049
    1UNL     N1   25  -0.252   0.227   0.024
    1UNL    C15   26  -0.365   0.284   0.102
    1UNL    C16   27  -0.488   0.203   0.069
    1UNL    C17   28  -0.470   0.050   0.047
    1UNL    C18   29  -0.342  -0.003   0.049
    1UNL     N2   30  -0.351  -0.141   0.064
    1UNL    C19   31  -0.483  -0.172   0.080
    1UNL    C20   32  -0.533  -0.292   0.131
    1UNL    C21   33  -0.665  -0.293   0.158
    1UNL    C22   34  -0.749  -0.179   0.134
    1UNL    C23   35  -0.703  -0.068   0.074
    1UNL    C24   36  -0.563  -0.058   0.051
    1UNL    C25   37  -0.213   0.080   0.040
    1UNL    C26   38  -0.131   0.030  -0.073
    1UNL    C27   39   0.022   0.035  -0.041
    1UNL     H1   40   0.017  -0.262  -0.405
    1UNL     H2   41  -0.087  -0.150  -0.495
    1UNL     H3   42  -0.159  -0.273  -0.395
    1UNL     H4   43   0.253   0.073  -0.299
    1UNL     H5   44   0.267   0.274   0.062
    1UNL     H6   45   0.412   0.160   0.200
    1UNL     H7   46   0.487  -0.240   0.220
    1UNL     H8   47   0.252  -0.167   0.056
    1UNL     H9   48   0.231  -0.192   0.237
    1UNL    H10   49   0.354  -0.399   0.172
    1UNL    H11   50   0.630  -0.172   0.063
    1UNL    H12   51   0.418  -0.300  -0.064
    1UNL    H13   52   0.395  -0.056  -0.122
    1UNL    H14   53   0.612  -0.133  -0.197
    1UNL    H15   54   0.453   0.158  -0.048
    1UNL    H16   55   0.698   0.088  -0.016
    1UNL    H17   56   0.057   0.156   0.139
    1UNL    H18   57  -0.025   0.297  -0.133
    1UNL    H19   58   0.164   0.395  -0.072
    1UNL    H20   59  -0.117   0.309   0.155
    1UNL    H21   60  -0.159   0.424   0.042
    1UNL    H22   61  -0.379   0.388   0.064
    1UNL    H23   62  -0.349   0.288   0.211
    1UNL    H24   63  -0.535   0.241  -0.024
    1UNL    H25   64  -0.566   0.217   0.145
    1UNL    H26   65  -0.260  -0.189   0.085
    1UNL    H27   66  -0.464  -0.374   0.134
    1UNL    H28   67  -0.718  -0.377   0.212
    1UNL    H29   68  -0.843  -0.178   0.181
    1UNL    H30   69  -0.768   0.019   0.061
    1UNL    H31   70  -0.173   0.059   0.144
    1UNL    H32   71  -0.148   0.102  -0.160
    1UNL    H33   72  -0.161  -0.069  -0.108
    1UNL    H34   73   0.042  -0.059   0.024
   0.00000   0.00000   0.00000   0.00000   0.00000   0.00000   0.00000   0.00000   0.00000
Generated with MDTraj, t= 93.0
 73
    1UNL     C1    1  -0.120  -0.215  -0.365
    1UNL     O1    2  -0.069  -0.132  -0.267
    1UNL     C2    3   0.059  -0.088  -0.282
    1UNL     O2    4   0.136  -0.126  -0.372
    1UNL     C3    5   0.105   0.008  -0.188
    1UNL     C4    6   0.214   0.085  -0.206
    1UNL     O3    7   0.268   0.177  -0.124
    1UNL     C5    8   0.215   0.168   0.017
    1UNL     O4    9   0.276   0.061   0.097
    1UNL     C6   10   0.413   0.072   0.136
    1UNL     O5   11   0.461  -0.025   0.233
    1UNL     C7   12   0.453  -0.159   0.168
    1UNL     C8   13   0.304  -0.201   0.149
    1UNL     O6   14   0.287  -0.335   0.096
    1UNL     C9   15   0.546  -0.165   0.040
    1UNL     O7   16   0.529  -0.287  -0.033
    1UNL    C10   17   0.501  -0.045  -0.057
    1UNL     O8   18   0.591  -0.045  -0.166
    1UNL    C11   19   0.512   0.086   0.016
    1UNL     O9   20   0.636   0.119   0.070
    1UNL    C12   21   0.067   0.152   0.015
    1UNL    C13   22  -0.005   0.289  -0.027
    1UNL    O10   23   0.079   0.404  -0.025
    1UNL    C14   24  -0.120   0.319   0.063
    1UNL     N1   25  -0.231   0.224   0.057
    1UNL    C15   26  -0.362   0.262   0.121
    1UNL    C16   27  -0.477   0.202   0.046
    1UNL    C17   28  -0.464   0.052   0.058
    1UNL    C18   29  -0.339   0.003   0.054
    1UNL     N2   30  -0.348  -0.129   0.075
    1UNL    C19   31  -0.481  -0.169   0.084
    1UNL    C20   32  -0.545  -0.298   0.094
    1UNL    C21   33  -0.681  -0.301   0.111
    1UNL    C22   34  -0.757  -0.179   0.114
    1UNL    C23   35  -0.695  -0.060   0.097
    1UNL    C24   36  -0.557  -0.052   0.081
    1UNL    C25   37  -0.208   0.075   0.040
    1UNL    C26   38  -0.140   0.048  -0.095
    1UNL    C27   39   0.009   0.032  -0.068
    1UNL     H1   40  -0.067  -0.305  -0.349
    1UNL     H2   41  -0.105  -0.181  -0.472
    1UNL     H3   42  -0.227  -0.228  -0.346
    1UNL     H4   43   0.269   0.057  -0.299
    1UNL     H5   44   0.251   0.264   0.067
    1UNL     H6   45   0.422   0.166   0.197
    1UNL     H7   46   0.492  -0.217   0.259
    1UNL     H8   47   0.251  -0.135   0.084
    1UNL     H9   48   0.260  -0.197   0.251
    1UNL    H10   49   0.364  -0.388   0.123
    1UNL    H11   50   0.643  -0.168   0.083
    1UNL    H12   51   0.430  -0.288  -0.059
    1UNL    H13   52   0.396  -0.055  -0.103
    1UNL    H14   53   0.589  -0.140  -0.192
    1UNL    H15   54   0.476   0.167  -0.050
    1UNL    H16   55   0.702   0.086   0.010
    1UNL    H17   56   0.048   0.134   0.119
    1UNL    H18   57  -0.042   0.278  -0.126
    1UNL    H19   58   0.153   0.377  -0.085
    1UNL    H20   59  -0.078   0.331   0.161
    1UNL    H21   60  -0.170   0.417   0.054
    1UNL    H22   61  -0.380   0.369   0.128
    1UNL    H23   62  -0.353   0.230   0.227
    1UNL    H24   63  -0.476   0.229  -0.062
    1UNL    H25   64  -0.579   0.236   0.072
    1UNL    H26   65  -0.274  -0.198   0.053
    1UNL    H27   66  -0.496  -0.394   0.072
    1UNL    H28   67  -0.742  -0.385   0.104
    1UNL    H29   68  -0.868  -0.188   0.122
    1UNL    H30   69  -0.750   0.037   0.095
    1UNL    H31   70  -0.148   0.032   0.126
    1UNL    H32   71  -0.164   0.135  -0.160
    1UNL    H33   72  -0.183  -0.040  -0.138
    1UNL    H34   73   0.020  -0.071  -0.017
   0.00000   0.00000   0.00000   0.00000   0.00000   0.00000   0.00000   0.00000   0.00000
Generated with MDTraj, t= 94.0
 73
    1UNL     C1    1  -0.089  -0.257  -0.356
    1UNL     O1    2  -0.077  -0.153  -0.260
    1UNL     C2    3   0.039  -0.077  -0.272
    1UNL     O2    4   0.102  -0.080  -0.381
    1UNL     C3    5   0.087  -0.002  -0.163
    1UNL     C4    6   0.199   0.069  -0.190
    1UNL     O3    7   0.263   0.162  -0.118
    1UNL     C5    8   0.221   0.167   0.015
    1UNL     O4    9   0.275   0.068   0.105
    1UNL     C6   10   0.411   0.080   0.133
    1UNL     O5   11   0.448  -0.029   0.226
    1UNL     C7   12   0.451  -0.153   0.156
    1UNL     C8   13   0.308  -0.209   0.125
    1UNL     O6   14   0.302  -0.346   0.086
    1UNL     C9   15   0.551  -0.158   0.047
    1UNL     O7   16   0.559  -0.290  -0.006
    1UNL    C10   17   0.516  -0.046  -0.058
    1UNL     O8   18   0.612  -0.053  -0.162
    1UNL    C11   19   0.505   0.097  -0.004
    1UNL     O9   20   0.632   0.147   0.021
    1UNL    C12   21   0.073   0.155   0.026
    1UNL    C13   22   0.005   0.278  -0.032
    1UNL    O10   23   0.091   0.393  -0.021
    1UNL    C14   24  -0.117   0.312   0.055
    1UNL     N1   25  -0.238   0.229   0.040
    1UNL    C15   26  -0.363   0.289   0.097
    1UNL    C16   27  -0.490   0.202   0.096
    1UNL    C17   28  -0.462   0.061   0.091
    1UNL    C18   29  -0.338   0.003   0.074
    1UNL     N2   30  -0.353  -0.135   0.067
    1UNL    C19   31  -0.483  -0.165   0.065
    1UNL    C20   32  -0.551  -0.289   0.062
    1UNL    C21   33  -0.689  -0.297   0.077
    1UNL    C22   34  -0.760  -0.176   0.079
    1UNL    C23   35  -0.700  -0.050   0.084
    1UNL    C24   36  -0.557  -0.045   0.090
    1UNL    C25   37  -0.214   0.085   0.061
    1UNL    C26   38  -0.134   0.025  -0.057
    1UNL    C27   39   0.013   0.021  -0.030
    1UNL     H1   40  -0.049  -0.343  -0.310
    1UNL     H2   41  -0.030  -0.240  -0.454
    1UNL     H3   42  -0.194  -0.288  -0.384
    1UNL     H4   43   0.242   0.065  -0.290
    1UNL     H5   44   0.260   0.266   0.051
    1UNL     H6   45   0.438   0.175   0.187
    1UNL     H7   46   0.482  -0.227   0.238
    1UNL     H8   47   0.267  -0.149   0.046
    1UNL     H9   48   0.239  -0.195   0.210
    1UNL    H10   49   0.219  -0.394   0.115
    1UNL    H11   50   0.651  -0.141   0.082
    1UNL    H12   51   0.474  -0.331  -0.017
    1UNL    H13   52   0.417  -0.057  -0.119
    1UNL    H14   53   0.626  -0.150  -0.169
    1UNL    H15   54   0.462   0.171  -0.076
    1UNL    H16   55   0.701   0.094  -0.030
    1UNL    H17   56   0.056   0.152   0.134
    1UNL    H18   57  -0.022   0.270  -0.137
    1UNL    H19   58   0.156   0.398  -0.092
    1UNL    H20   59  -0.105   0.331   0.160
    1UNL    H21   60  -0.146   0.412   0.019
    1UNL    H22   61  -0.378   0.381   0.045
    1UNL    H23   62  -0.348   0.322   0.203
    1UNL    H24   63  -0.561   0.227   0.013
    1UNL    H25   64  -0.561   0.222   0.178
    1UNL    H26   65  -0.281  -0.207   0.080
    1UNL    H27   66  -0.499  -0.379   0.056
    1UNL    H28   67  -0.729  -0.398   0.070
    1UNL    H29   68  -0.866  -0.179   0.067
    1UNL    H30   69  -0.762   0.031   0.089
    1UNL    H31   70  -0.153   0.070   0.154
    1UNL    H32   71  -0.145   0.088  -0.143
    1UNL    H33   72  -0.167  -0.073  -0.084
    1UNL    H34   73   0.049  -0.074   0.022
   0.00000   0.00000   0.00000   0.00000   0.00000   0.00000   0.00000   0.00000   0.00000
Generated with MDTraj, t= 95.0
 73
    1UNL     C1    1  -0.086  -0.257  -0.318
    1UNL     O1    2  -0.019  -0.192  -0.218
    1UNL     C2    3   0.048  -0.082  -0.258
    1UNL     O2    4   0.072  -0.063  -0.379
    1UNL     C3    5   0.093   0.008  -0.159
    1UNL     C4    6   0.188   0.100  -0.189
    1UNL     O3    7   0.256   0.182  -0.102
    1UNL     C5    8   0.207   0.167   0.030
    1UNL     O4    9   0.268   0.054   0.099
    1UNL     C6   10   0.412   0.062   0.118
    1UNL     O5   11   0.477  -0.028   0.220
    1UNL     C7   12   0.488  -0.157   0.168
    1UNL     C8   13   0.338  -0.215   0.133
    1UNL     O6   14   0.326  -0.334   0.064
    1UNL     C9   15   0.582  -0.169   0.045
    1UNL     O7   16   0.592  -0.305  -0.002
    1UNL    C10   17   0.530  -0.074  -0.072
    1UNL     O8   18   0.637  -0.049  -0.171
    1UNL    C11   19   0.496   0.067  -0.019
    1UNL     O9   20   0.619   0.126   0.019
    1UNL    C12   21   0.050   0.163   0.031
    1UNL    C13   22  -0.010   0.285  -0.040
    1UNL    O10   23   0.086   0.392  -0.051
    1UNL    C14   24  -0.142   0.330   0.034
    1UNL     N1   25  -0.259   0.231   0.042
    1UNL    C15   26  -0.364   0.286   0.127
    1UNL    C16   27  -0.502   0.214   0.096
    1UNL    C17   28  -0.481   0.067   0.098
    1UNL    C18   29  -0.358   0.004   0.085
    1UNL     N2   30  -0.361  -0.132   0.071
    1UNL    C19   31  -0.495  -0.165   0.079
    1UNL    C20   32  -0.561  -0.282   0.054
    1UNL    C21   33  -0.697  -0.283   0.031
    1UNL    C22   34  -0.770  -0.170   0.054
    1UNL    C23   35  -0.708  -0.045   0.077
    1UNL    C24   36  -0.569  -0.044   0.092
    1UNL    C25   37  -0.228   0.085   0.062
    1UNL    C26   38  -0.141   0.035  -0.057
    1UNL    C27   39   0.011   0.030  -0.029
    1UNL     H1   40  -0.027  -0.275  -0.404
    1UNL     H2   41  -0.181  -0.198  -0.352
    1UNL     H3   42  -0.112  -0.361  -0.284
    1UNL     H4   43   0.224   0.105  -0.289
    1UNL     H5   44   0.240   0.260   0.073
    1UNL     H6   45   0.423   0.164   0.165
    1UNL     H7   46   0.533  -0.213   0.255
    1UNL     H8   47   0.286  -0.140   0.079
    1UNL     H9   48   0.278  -0.219   0.226
    1UNL    H10   49   0.244  -0.385   0.080
    1UNL    H11   50   0.688  -0.148   0.067
    1UNL    H12   51   0.503  -0.349   0.011
    1UNL    H13   52   0.431  -0.113  -0.118
    1UNL    H14   53   0.664  -0.138  -0.202
    1UNL    H15   54   0.438   0.138  -0.085
    1UNL    H16   55   0.692   0.086  -0.034
    1UNL    H17   56   0.007   0.152   0.131
    1UNL    H18   57  -0.031   0.252  -0.144
    1UNL    H19   58   0.174   0.353  -0.085
    1UNL    H20   59  -0.106   0.362   0.130
    1UNL    H21   60  -0.188   0.418  -0.012
    1UNL    H22   61  -0.379   0.391   0.115
    1UNL    H23   62  -0.338   0.272   0.236
    1UNL    H24   63  -0.552   0.251   0.003
    1UNL    H25   64  -0.579   0.247   0.169
    1UNL    H26   65  -0.291  -0.206   0.062
    1UNL    H27   66  -0.504  -0.377   0.055
    1UNL    H28   67  -0.743  -0.377   0.000
    1UNL    H29   68  -0.876  -0.186   0.063
    1UNL    H30   69  -0.760   0.054   0.098
    1UNL    H31   70  -0.179   0.075   0.161
    1UNL    H32   71  -0.159   0.090  -0.142
    1UNL    H33   72  -0.162  -0.066  -0.086
    1UNL    H34   73   0.028  -0.056   0.042
   0.00000   0.00000   0.00000   0.00000   0.00000   0.00000   0.00000   0.00000   0.00000
Generated with MDTraj, t= 96.0
 73
    1UNL     C1    1  -0.057  -0.281  -0.274
    1UNL     O1    2  -0.038  -0.184  -0.183
    1UNL     C2    3   0.038  -0.086  -0.239
    1UNL     O2    4   0.070  -0.078  -0.359
    1UNL     C3    5   0.097   0.016  -0.159
    1UNL     C4    6   0.197   0.098  -0.197
    1UNL     O3    7   0.259   0.186  -0.119
    1UNL     C5    8   0.223   0.181   0.022
    1UNL     O4    9   0.271   0.060   0.080
    1UNL     C6   10   0.409   0.069   0.110
    1UNL     O5   11   0.449  -0.029   0.214
    1UNL     C7   12   0.473  -0.157   0.155
    1UNL     C8   13   0.341  -0.236   0.104
    1UNL     O6   14   0.370  -0.365   0.064
    1UNL     C9   15   0.580  -0.150   0.044
    1UNL     O7   16   0.616  -0.280   0.002
    1UNL    C10   17   0.515  -0.069  -0.065
    1UNL     O8   18   0.609  -0.072  -0.177
    1UNL    C11   19   0.498   0.075  -0.022
    1UNL     O9   20   0.620   0.135  -0.002
    1UNL    C12   21   0.068   0.167   0.040
    1UNL    C13   22  -0.008   0.284  -0.012
    1UNL    O10   23   0.065   0.404  -0.035
    1UNL    C14   24  -0.128   0.318   0.080
    1UNL     N1   25  -0.246   0.228   0.063
    1UNL    C15   26  -0.374   0.274   0.129
    1UNL    C16   27  -0.505   0.206   0.075
    1UNL    C17   28  -0.474   0.063   0.051
    1UNL    C18   29  -0.351   0.006   0.076
    1UNL     N2   30  -0.366  -0.138   0.060
    1UNL    C19   31  -0.506  -0.161   0.046
    1UNL    C20   32  -0.577  -0.278   0.045
    1UNL    C21   33  -0.717  -0.272   0.049
    1UNL    C22   34  -0.786  -0.147   0.052
    1UNL    C23   35  -0.716  -0.034   0.060
    1UNL    C24   36  -0.574  -0.037   0.052
    1UNL    C25   37  -0.221   0.081   0.075
    1UNL    C26   38  -0.128   0.025  -0.031
    1UNL    C27   39   0.027   0.038  -0.022
    1UNL     H1   40  -0.135  -0.258  -0.341
    1UNL     H2   41  -0.099  -0.376  -0.221
    1UNL     H3   42   0.034  -0.295  -0.333
    1UNL     H4   43   0.234   0.094  -0.297
    1UNL     H5   44   0.265   0.269   0.062
    1UNL     H6   45   0.419   0.167   0.159
    1UNL     H7   46   0.523  -0.200   0.243
    1UNL     H8   47   0.291  -0.187   0.023
    1UNL     H9   48   0.271  -0.239   0.190
    1UNL    H10   49   0.301  -0.402   0.006
    1UNL    H11   50   0.677  -0.109   0.083
    1UNL    H12   51   0.529  -0.323  -0.010
    1UNL    H13   52   0.410  -0.107  -0.093
    1UNL    H14   53   0.632  -0.166  -0.190
    1UNL    H15   54   0.436   0.118  -0.106
    1UNL    H16   55   0.675   0.090  -0.067
    1UNL    H17   56   0.061   0.178   0.152
    1UNL    H18   57  -0.052   0.265  -0.114
    1UNL    H19   58   0.136   0.384  -0.096
    1UNL    H20   59  -0.099   0.310   0.183
    1UNL    H21   60  -0.150   0.422   0.050
    1UNL    H22   61  -0.387   0.378   0.123
    1UNL    H23   62  -0.374   0.248   0.239
    1UNL    H24   63  -0.546   0.259  -0.015
    1UNL    H25   64  -0.593   0.211   0.143
    1UNL    H26   65  -0.294  -0.203   0.036
    1UNL    H27   66  -0.527  -0.371   0.033
    1UNL    H28   67  -0.770  -0.364   0.058
    1UNL    H29   68  -0.897  -0.142   0.068
    1UNL    H30   69  -0.766   0.057   0.072
    1UNL    H31   70  -0.177   0.079   0.177
    1UNL    H32   71  -0.161   0.058  -0.122
    1UNL    H33   72  -0.149  -0.079  -0.032
    1UNL    H34   73   0.061  -0.039   0.051
   0.00000   0.00000   0.00000   0.00000   0.00000   0.00000   0.00000   0.00000   0.00000
Generated with MDTraj, t= 97.0
 73
    1UNL     C1    1  -0.061  -0.312  -0.262
    1UNL     O1    2  -0.036  -0.207  -0.172
    1UNL     C2    3   0.048  -0.119  -0.231
    1UNL     O2    4   0.107  -0.136  -0.342
    1UNL     C3    5   0.081   0.002  -0.154
    1UNL     C4    6   0.188   0.083  -0.185
    1UNL     O3    7   0.239   0.184  -0.112
    1UNL     C5    8   0.213   0.168   0.030
    1UNL     O4    9   0.276   0.047   0.072
    1UNL     C6   10   0.414   0.066   0.103
    1UNL     O5   11   0.482  -0.017   0.202
    1UNL     C7   12   0.494  -0.144   0.150
    1UNL     C8   13   0.356  -0.211   0.123
    1UNL     O6   14   0.353  -0.345   0.062
    1UNL     C9   15   0.588  -0.149   0.026
    1UNL     O7   16   0.609  -0.278  -0.039
    1UNL    C10   17   0.525  -0.061  -0.080
    1UNL     O8   18   0.628  -0.061  -0.184
    1UNL    C11   19   0.506   0.078  -0.033
    1UNL     O9   20   0.631   0.141  -0.004
    1UNL    C12   21   0.058   0.163   0.054
    1UNL    C13   22  -0.009   0.294   0.020
    1UNL    O10   23   0.086   0.404   0.030
    1UNL    C14   24  -0.140   0.321   0.100
    1UNL     N1   25  -0.253   0.233   0.071
    1UNL    C15   26  -0.385   0.273   0.134
    1UNL    C16   27  -0.502   0.216   0.056
    1UNL    C17   28  -0.486   0.069   0.050
    1UNL    C18   29  -0.356   0.011   0.048
    1UNL     N2   30  -0.374  -0.125   0.060
    1UNL    C19   31  -0.517  -0.151   0.051
    1UNL    C20   32  -0.589  -0.274   0.059
    1UNL    C21   33  -0.724  -0.268   0.048
    1UNL    C22   34  -0.793  -0.142   0.036
    1UNL    C23   35  -0.723  -0.028   0.036
    1UNL    C24   36  -0.583  -0.033   0.040
    1UNL    C25   37  -0.228   0.085   0.061
    1UNL    C26   38  -0.139   0.052  -0.060
    1UNL    C27   39   0.008   0.033  -0.028
    1UNL     H1   40  -0.117  -0.389  -0.221
    1UNL     H2   41   0.033  -0.368  -0.292
    1UNL     H3   42  -0.105  -0.267  -0.347
    1UNL     H4   43   0.240   0.083  -0.283
    1UNL     H5   44   0.252   0.252   0.078
    1UNL     H6   45   0.430   0.165   0.143
    1UNL     H7   46   0.548  -0.202   0.221
    1UNL     H8   47   0.305  -0.149   0.053
    1UNL     H9   48   0.298  -0.220   0.218
    1UNL    H10   49   0.291  -0.406   0.111
    1UNL    H11   50   0.701  -0.123   0.038
    1UNL    H12   51   0.528  -0.326  -0.017
    1UNL    H13   52   0.427  -0.101  -0.117
    1UNL    H14   53   0.650  -0.154  -0.207
    1UNL    H15   54   0.461   0.146  -0.111
    1UNL    H16   55   0.690   0.131  -0.087
    1UNL    H17   56   0.048   0.153   0.166
    1UNL    H18   57  -0.024   0.278  -0.091
    1UNL    H19   58   0.148   0.399  -0.041
    1UNL    H20   59  -0.115   0.313   0.204
    1UNL    H21   60  -0.174   0.423   0.073
    1UNL    H22   61  -0.397   0.376   0.154
    1UNL    H23   62  -0.398   0.222   0.235
    1UNL    H24   63  -0.498   0.257  -0.047
    1UNL    H25   64  -0.601   0.253   0.089
    1UNL    H26   65  -0.306  -0.183   0.105
    1UNL    H27   66  -0.537  -0.367   0.045
    1UNL    H28   67  -0.789  -0.357   0.045
    1UNL    H29   68  -0.894  -0.135   0.039
    1UNL    H30   69  -0.770   0.068   0.033
    1UNL    H31   70  -0.177   0.062   0.157
    1UNL    H32   71  -0.144   0.129  -0.131
    1UNL    H33   72  -0.176  -0.031  -0.110
    1UNL    H34   73   0.017  -0.061   0.030
   0.00000   0.00000   0.00000   0.00000   0.00000   0.00000   0.00000   0.00000   0.00000
Generated with MDTraj, t= 98.0
 73
    1UNL     C1    1  -0.055  -0.335  -0.239
    1UNL     O1    2  -0.045  -0.207  -0.180
    1UNL     C2    3   0.067  -0.139  -0.220
    1UNL     O2    4   0.143  -0.185  -0.311
    1UNL     C3    5   0.094  -0.018  -0.140
    1UNL     C4    6   0.193   0.070  -0.183
    1UNL     O3    7   0.248   0.178  -0.106
    1UNL     C5    8   0.222   0.158   0.033
    1UNL     O4    9   0.290   0.052   0.098
    1UNL     C6   10   0.431   0.073   0.105
    1UNL     O5   11   0.504  -0.017   0.193
    1UNL     C7   12   0.500  -0.147   0.134
    1UNL     C8   13   0.353  -0.198   0.118
    1UNL     O6   14   0.336  -0.336   0.081
    1UNL     C9   15   0.587  -0.153   0.002
    1UNL     O7   16   0.591  -0.275  -0.065
    1UNL    C10   17   0.524  -0.042  -0.100
    1UNL     O8   18   0.619  -0.024  -0.205
    1UNL    C11   19   0.500   0.091  -0.039
    1UNL     O9   20   0.620   0.163  -0.026
    1UNL    C12   21   0.069   0.144   0.065
    1UNL    C13   22  -0.001   0.279   0.051
    1UNL    O10   23   0.083   0.393   0.087
    1UNL    C14   24  -0.133   0.294   0.128
    1UNL     N1   25  -0.249   0.231   0.050
    1UNL    C15   26  -0.375   0.305   0.096
    1UNL    C16   27  -0.500   0.236   0.045
    1UNL    C17   28  -0.492   0.084   0.047
    1UNL    C18   29  -0.373   0.017   0.043
    1UNL     N2   30  -0.397  -0.117   0.052
    1UNL    C19   31  -0.529  -0.145   0.051
    1UNL    C20   32  -0.590  -0.269   0.051
    1UNL    C21   33  -0.726  -0.269   0.041
    1UNL    C22   34  -0.793  -0.147   0.027
    1UNL    C23   35  -0.737  -0.023   0.029
    1UNL    C24   36  -0.595  -0.016   0.045
    1UNL    C25   37  -0.241   0.081   0.058
    1UNL    C26   38  -0.150   0.038  -0.059
    1UNL    C27   39   0.004   0.024  -0.024
    1UNL     H1   40   0.021  -0.401  -0.211
    1UNL     H2   41  -0.042  -0.324  -0.351
    1UNL     H3   42  -0.153  -0.371  -0.229
    1UNL     H4   43   0.249   0.056  -0.277
    1UNL     H5   44   0.260   0.249   0.072
    1UNL     H6   45   0.445   0.167   0.155
    1UNL     H7   46   0.536  -0.208   0.214
    1UNL     H8   47   0.299  -0.143   0.043
    1UNL     H9   48   0.308  -0.170   0.217
    1UNL    H10   49   0.241  -0.365   0.081
    1UNL    H11   50   0.696  -0.119   0.022
    1UNL    H12   51   0.516  -0.329  -0.020
    1UNL    H13   52   0.425  -0.076  -0.134
    1UNL    H14   53   0.643  -0.115  -0.235
    1UNL    H15   54   0.433   0.157  -0.099
    1UNL    H16   55   0.673   0.150  -0.105
    1UNL    H17   56   0.053   0.112   0.173
    1UNL    H18   57  -0.016   0.286  -0.060
    1UNL    H19   58   0.169   0.397   0.034
    1UNL    H20   59  -0.135   0.231   0.215
    1UNL    H21   60  -0.156   0.399   0.150
    1UNL    H22   61  -0.378   0.403   0.057
    1UNL    H23   62  -0.374   0.316   0.209
    1UNL    H24   63  -0.527   0.272  -0.057
    1UNL    H25   64  -0.587   0.277   0.101
    1UNL    H26   65  -0.326  -0.180   0.021
    1UNL    H27   66  -0.519  -0.353   0.049
    1UNL    H28   67  -0.778  -0.358   0.022
    1UNL    H29   68  -0.904  -0.160   0.000
    1UNL    H30   69  -0.790   0.076   0.022
    1UNL    H31   70  -0.196   0.050   0.152
    1UNL    H32   71  -0.167   0.109  -0.138
    1UNL    H33   72  -0.183  -0.049  -0.103
    1UNL    H34   73  -0.005  -0.068   0.036
   0.00000   0.00000   0.00000   0.00000   0.00000   0.00000   0.00000   0.00000   0.00000
Generated with MDTraj, t= 99.0
 73
    1UNL     C1    1  -0.056  -0.328  -0.238
    1UNL     O1    2  -0.036  -0.230  -0.141
    1UNL     C2    3   0.071  -0.153  -0.174
    1UNL     O2    4   0.159  -0.196  -0.254
    1UNL     C3    5   0.093  -0.028  -0.109
    1UNL     C4    6   0.190   0.055  -0.158
    1UNL     O3    7   0.231   0.177  -0.096
    1UNL     C5    8   0.219   0.165   0.044
    1UNL     O4    9   0.296   0.062   0.103
    1UNL     C6   10   0.436   0.090   0.105
    1UNL     O5   11   0.495  -0.014   0.190
    1UNL     C7   12   0.499  -0.144   0.116
    1UNL     C8   13   0.362  -0.214   0.109
    1UNL     O6   14   0.368  -0.348   0.060
    1UNL     C9   15   0.573  -0.142  -0.023
    1UNL     O7   16   0.566  -0.266  -0.082
    1UNL    C10   17   0.499  -0.023  -0.112
    1UNL     O8   18   0.571  -0.013  -0.233
    1UNL    C11   19   0.502   0.110  -0.039
    1UNL     O9   20   0.633   0.150  -0.028
    1UNL    C12   21   0.062   0.150   0.077
    1UNL    C13   22   0.002   0.286   0.041
    1UNL    O10   23   0.090   0.391   0.093
    1UNL    C14   24  -0.128   0.309   0.119
    1UNL     N1   25  -0.241   0.230   0.059
    1UNL    C15   26  -0.381   0.285   0.099
    1UNL    C16   27  -0.489   0.221   0.006
    1UNL    C17   28  -0.476   0.070   0.020
    1UNL    C18   29  -0.360   0.008   0.043
    1UNL     N2   30  -0.386  -0.124   0.040
    1UNL    C19   31  -0.523  -0.156   0.022
    1UNL    C20   32  -0.613  -0.263   0.026
    1UNL    C21   33  -0.748  -0.246   0.037
    1UNL    C22   34  -0.806  -0.116   0.040
    1UNL    C23   35  -0.724  -0.008   0.018
    1UNL    C24   36  -0.584  -0.028   0.016
    1UNL    C25   37  -0.227   0.082   0.065
    1UNL    C26   38  -0.133   0.035  -0.045
    1UNL    C27   39   0.009   0.016   0.010
    1UNL     H1   40   0.039  -0.361  -0.275
    1UNL     H2   41  -0.121  -0.287  -0.324
    1UNL     H3   42  -0.114  -0.406  -0.197
    1UNL     H4   43   0.239   0.036  -0.252
    1UNL     H5   44   0.259   0.263   0.072
    1UNL     H6   45   0.443   0.172   0.174
    1UNL     H7   46   0.546  -0.212   0.187
    1UNL     H8   47   0.305  -0.143   0.050
    1UNL     H9   48   0.303  -0.216   0.203
    1UNL    H10   49   0.297  -0.362  -0.005
    1UNL    H11   50   0.685  -0.127  -0.008
    1UNL    H12   51   0.506  -0.324  -0.036
    1UNL    H13   52   0.394  -0.046  -0.125
    1UNL    H14   53   0.584  -0.106  -0.262
    1UNL    H15   54   0.439   0.176  -0.103
    1UNL    H16   55   0.673   0.124  -0.119
    1UNL    H17   56   0.057   0.140   0.192
    1UNL    H18   57  -0.010   0.294  -0.068
    1UNL    H19   58   0.049   0.483   0.104
    1UNL    H20   59  -0.122   0.276   0.222
    1UNL    H21   60  -0.158   0.415   0.119
    1UNL    H22   61  -0.380   0.392   0.094
    1UNL    H23   62  -0.408   0.260   0.205
    1UNL    H24   63  -0.473   0.261  -0.098
    1UNL    H25   64  -0.593   0.251   0.024
    1UNL    H26   65  -0.318  -0.195   0.023
    1UNL    H27   66  -0.581  -0.362   0.037
    1UNL    H28   67  -0.803  -0.343   0.030
    1UNL    H29   68  -0.910  -0.109   0.048
    1UNL    H30   69  -0.764   0.085   0.017
    1UNL    H31   70  -0.182   0.047   0.158
    1UNL    H32   71  -0.140   0.107  -0.126
    1UNL    H33   72  -0.167  -0.053  -0.090
    1UNL    H34   73   0.001  -0.060   0.087
   0.00000   0.00000   0.00000   0.00000   0.00000   0.00000   0.00000   0.00000   0.00000
