1TPCN06035
20
    1res  C1    1   -0.698   0.329  -0.060
    1res  C2    2   -0.485   0.017   0.146
    1res  C3    3   -0.245  -0.129   0.217
    1res  C4    4   -0.135  -0.165   0.006
    1res  C5    5   -0.258  -0.406   0.072
    1res  C6    6   -0.386  -0.261  -0.172
    1res  C7    7   -0.122  -0.253  -0.264
    1res  C8    8    0.181  -0.227  -0.134
    1res  C9    9    0.083   0.113  -0.130
    1res  C10   10    0.240   0.008   0.059
    1res  C11   11    0.495   0.085  -0.146
    1res  C12   12    0.441   0.365  -0.184
    1res  C13   13    0.626   0.439  -0.017
    1res  C14   14    0.748   0.166  -0.050
    1res  C15   15    0.718   0.253   0.209
    1res  C16   16    0.487  -0.088   0.086
    1res  C17   17    0.090  -0.279   0.159
    1res  C18   18   -0.501  -0.159   0.354
    1res  C19   19   -0.685   0.009   0.373
    1res  C20   20   -0.757  -0.044   0.153
  10.00000  10.00000  10.00000
