[ moleculetype ]
; name        nrexcl
res           1

[ atoms ]
;    nr  type resnr resid  atom  cgnr     charge       mass
      1 N4a       1 res   C1        1      0.000     72.000
      2 SN4a      1 res   C2        2      0.000     54.000
      3 SN4a      1 res   C3        3      0.000     54.000
      4 TC5       1 res   C4        4      0.000     36.000
      5 TC3       1 res   C5        5      0.000     36.000
      6 TC4       1 res   C6        6      0.000     36.000
      7 SN6       1 res   C7        7      0.000     54.000
      8 SC4       1 res   C8        8      0.000     54.000
      9 TC3       1 res   C9        9      0.000     36.000
     10 SC4       1 res   C10      10      0.000     54.000
     11 SC4       1 res   C11      11      0.000     54.000
     12 SN6       1 res   C12      12      0.000     54.000
     13 TN6       1 res   C13      13      0.000     36.000
     14 TC4       1 res   C14      14      0.000     36.000
     15 TP1       1 res   C15      15      0.000     36.000
     16 TC3       1 res   C16      16      0.000     36.000
     17 TC3       1 res   C17      17      0.000     36.000
     18 TN6       1 res   C18      18      0.000     36.000
     19 TN6       1 res   C19      19      0.000     36.000
     20 TN6       1 res   C20      20      0.000     36.000

[ bonds ]
;  ai    aj   funct      b0(nm)        k
    1     2     1      0.43073    20000
    2     3     1      0.28947    20000
    2    18     1      0.27261    20000
    2    20     1      0.27834    20000
    3     4     1      0.24069    20000
    4     5     1      0.27887    20000
    4     7     1      0.28462    20000
    4     8     1      0.35169    20000
    4    17     1      0.29567    20000
    5     6     1      0.31111    20000
    6     7     1      0.27931    20000
    8     9     1      0.35356    20000
    8    10     1      0.30957    20000
    8    17     1      0.31171    20000
    9    10     1      0.26715    20000
   10    11     1      0.33573    20000
   10    16     1      0.26662    20000
   11    12     1      0.28753    20000
   11    14     1      0.28298    20000
   11    16     1      0.28879    20000
   12    13     1      0.26032    20000
   13    14     1      0.30150    20000
   14    15     1      0.27432    20000
   18    19     1      0.25024    20000
   19    20     1      0.23838    20000
