1TPCN04821
24
    1res  C1    1   -0.977   0.006  -0.090
    1res  C2    2   -0.771  -0.102  -0.274
    1res  C3    3   -0.703   0.005  -0.027
    1res  C4    4   -0.505   0.175  -0.220
    1res  C5    5   -0.403  -0.171  -0.141
    1res  C6    6   -0.494  -0.214   0.116
    1res  C7    7   -0.451   0.174   0.181
    1res  C8    8   -0.330  -0.058   0.265
    1res  C9    9   -0.103   0.112   0.337
    1res  C10   10   -0.046   0.247   0.062
    1res  C11   11    0.186   0.157   0.040
    1res  C12   12    0.291   0.135  -0.245
    1res  C13   13    0.260  -0.149  -0.279
    1res  C14   14    0.524   0.046  -0.347
    1res  C15   15    0.536   0.014  -0.100
    1res  C16   16    0.821  -0.106  -0.149
    1res  C17   17    1.117  -0.025  -0.263
    1res  C18   18    1.038  -0.032   0.022
    1res  C19   19    0.877  -0.024   0.173
    1res  C20   20    0.706  -0.168   0.086
    1res  C21   21    0.453   0.220  -0.018
    1res  C22   22    0.186   0.129   0.311
    1res  C23   23    0.261  -0.121   0.196
    1res  C24   24   -0.107  -0.177   0.135
  10.00000  10.00000  10.00000
