[ moleculetype ]
; name        nrexcl
res           1

[ atoms ]
;    nr  type resnr resid  atom  cgnr     charge       mass
      1 TC5       1 res   C1        1      0.000     36.000
      2 TN6a      1 res   C2        2      0.000     36.000
      3 TN6a      1 res   C3        3      0.000     36.000
      4 TC5       1 res   C4        4      0.000     36.000
      5 TX3       1 res   C5        5      0.000     36.000
      6 TC6       1 res   C6        6      0.000     36.000

[ bonds ]
;  ai    aj   funct      b0(nm)        k
    1     2     1      0.26756    20000
    1     6     1      0.23971    20000
    2     3     1      0.21689    20000
    2     4     1      0.20731    20000
    3     4     1      0.25292    20000
    4     5     1      0.22003    20000
    4     6     1      0.21954    20000
