[ moleculetype ]
; name        nrexcl
res           1

[ atoms ]
;    nr  type  resnr resid  atom  cgnr     charge       mass
      1 TC5       1 res   C1        1      0.000     36.000
      2 TP1d      1 res   C2        2      0.000     36.000
      3 SN4a      1 res   C3        3      0.000     54.000
      4 N4a       1 res   C4        4      0.000     72.000
      5 SP2       1 res   C5        5      0.000     54.000
      6 SP4       1 res   C6        6      0.000     54.000
      7 TN6       1 res   C7        7      0.000     36.000
      8 SN4a      1 res   C8        8      0.000     54.000
      9 TP1       1 res   C9        9      0.000     36.000
     10 SP4       1 res   C10      10      0.000     54.000
     11 TN6       1 res   C11      11      0.000     36.000
     12 TC3       1 res   C12      12      0.000     36.000
     13 SC4       1 res   C13      13      0.000     54.000
     14 TC3       1 res   C14      14      0.000     36.000

[ constraints ]
;  ai    aj   funct      b0(nm)
    1     2     1      0.26640
   10    11     1      0.28651
    8    11     1      0.28821
   12    14     1      0.29509
   13    14     1      0.31559
    3     4     1      0.41998
    7     8     1      0.27042
    8    10     1      0.28317
   12    13     1      0.37260
    3     7     1      0.26722
    6     7     1      0.26910
    8     9     1      0.20948
    3     6     1      0.26622

[ bonds ]
;  ai    aj   funct      b0(nm)          k(kJ/mol/nm^2)
    2     3     1      0.30520           6289.8
    4     5     1      0.35588          12021.6
    1    12     1      0.31531           5133.9

[ angles ]
;  ai    aj    ak  funct     th0(deg)        k(kJ/mol/rad^2)
    1     2     3     1    104.26753            13.31
    1    12    13     1    109.88703            22.61
    1    12    14     1     76.66057            63.99
    2     1    12     1     69.30834           140.83
    2     3     4     1     94.56045           333.43
    2     3     6     1    115.84861           330.67
    2     3     7     1     56.14611           292.42
    3     4     5     1    136.43657            49.35
    3     6     7     1     59.88326          4603.62
    3     7     6     1     59.52594          3177.01
    3     7     8     1    161.72883           356.01
    4     3     6     1     73.17762            68.11
    4     3     7     1     85.57895           313.49
    6     3     7     1     60.59074          3577.90
    6     7     8     1    110.81925           313.17
    7     8     9     1    110.69657           220.00
    7     8    10     1    134.60468           887.64
    7     8    11     1     77.42954          1472.64
    8    10    11     1     60.77005          2663.01
    8    11    10     1     59.04409          2860.76
    9     8    10     1     99.11681           842.57
    9     8    11     1    146.52492           227.51
   10     8    11     1     60.18578          2439.12
   12    13    14     1     49.93245          5491.93
   12    14    13     1     75.12706          2664.12
   13    12    14     1     54.94058          2839.57

[ dihedrals ]
;  ai    aj    ak    al  funct   phi0(deg)        k(kJ/mol)   mult
    1     2     3     4     1     30.89785       16.514      1
    1     2     3     6     1    -36.32129       18.203      1
    1     2     3     7     1    -47.96427       16.735      1
    1    12    13    14     1   -126.34162       20.249      1
    1    12    14    13     1     57.57833       23.116      1
    2     1    12    13     1   -128.53936       21.919      1
    2     1    12    14     1    -83.61924       20.232      1
    2     3     4     5     1   -114.69575       31.613      1
    2     3     6     7     1    170.18821       12.233      1
    2     3     7     6     1     -8.89073       12.927      1
    2     3     7     8     1    -70.64214       24.922      1
    3     2     1    12     1    -73.48460       20.701      1
    3     6     7     8     1    -17.07737       11.421      1
    3     7     8     9     1      3.47608       28.046      1
    3     7     8    10     1    128.55693       25.242      1
    3     7     8    11     1    148.81701       26.110      1
    4     3     6     7     1     85.94810        6.307      1
    4     3     7     6     1   -109.86888       15.060      1
    4     3     7     8     1   -168.00822       25.694      1
    5     4     3     6     1     -0.55251       30.546      1
    5     4     3     7     1    -62.45524       29.240      1
    6     3     7     8     1    117.80406       25.923      1
    6     7     8     9     1    -56.47562       18.427      1
    6     7     8    10     1     74.70600       24.684      1
    6     7     8    11     1     88.94627       15.733      1
    7     8    10    11     1   -164.00472       17.741      1
    7     8    11    10     1     12.08839       15.091      1
    9     8    10    11     1    -26.01957       12.193      1
    9     8    11    10     1    122.70549       13.561      1
