1TPCN00205
8
    1res  C1    1    0.069   0.224  -0.093
    1res  C2    2    0.025   0.093   0.196
    1res  C3    3    0.291  -0.012   0.077
    1res  C4    4    0.503  -0.093  -0.153
    1res  C5    5   -0.195   0.122   0.008
    1res  C6    6   -0.388   0.034  -0.215
    1res  C7    7   -0.337  -0.193  -0.022
    1res  C8    8   -0.311   0.034   0.187
  10.00000  10.00000  10.00000
