[ moleculetype ]
; name        nrexcl
res           1

[ atoms ]
;    nr  type  resnr resid  atom  cgnr     charge       mass
      1 SC2       1 res   C1        1      0.000     54.000
      2 TC5       1 res   C2        2      0.000     36.000
      3 TC5       1 res   C3        3      0.000     36.000
      4 TC5       1 res   C4        4      0.000     36.000

[ constraints ]
;  ai    aj   funct      b0(nm)
    1     2     1      0.27760
    3     4     1      0.28791
    2     3     1      0.25648
    2     4     1      0.29797

[ bonds ]
;  ai    aj   funct      b0(nm)          k(kJ/mol/nm^2)

[ angles ]
;  ai    aj    ak  funct     th0(deg)        k(kJ/mol/rad^2)
    1     2     3     1    138.31277           350.94
    1     2     4     1     89.07576           507.74
    2     3     4     1     66.08289          4148.13
    2     4     3     1     51.87828         10622.31
    3     2     4     1     62.03882          4283.26

[ dihedrals ]
;  ai    aj    ak    al  funct   phi0(deg)        k(kJ/mol)   mult
    1     2     3     4     1   -133.20929       12.813      1
    1     2     4     3     1     29.10081       10.026      1
