1TPCN00400
14
    1res  C1    1    0.608  -0.002  -0.304
    1res  C2    2    0.519   0.018  -0.070
    1res  C3    3    0.497   0.018   0.204
    1res  C4    4    0.160   0.103   0.080
    1res  C5    5   -0.041  -0.105   0.168
    1res  C6    6    0.092  -0.170  -0.110
    1res  C7    7    0.075  -0.345   0.166
    1res  C8    8   -0.191  -0.292  -0.075
    1res  C9    9   -0.161  -0.028  -0.011
    1res  C10   10   -0.312   0.170  -0.016
    1res  C11   11   -0.399   0.334  -0.248
    1res  C12   12   -0.528   0.239   0.115
    1res  C13   13   -0.411  -0.025   0.126
    1res  C14   14    0.776  -0.063   0.122
  10.00000  10.00000  10.00000
