Generated with MDTraj, t= 0.0
 35
    1UNL     O1    1   0.300  -0.254  -0.080
    1UNL     C1    2   0.259  -0.142  -0.054
    1UNL     C2    3   0.349  -0.028  -0.046
    1UNL     C3    4   0.485  -0.041  -0.068
    1UNL     N1    5   0.573   0.057  -0.062
    1UNL     C4    6   0.524   0.177  -0.031
    1UNL     C5    7   0.392   0.203  -0.006
    1UNL     C6    8   0.299   0.099  -0.013
    1UNL     C7    9   0.160   0.116   0.010
    1UNL     C8   10   0.075   0.010   0.002
    1UNL     N2   11   0.123  -0.118  -0.029
    1UNL     C9   12   0.035  -0.236  -0.027
    1UNL    C10   13  -0.112  -0.208  -0.063
    1UNL    C11   14  -0.157  -0.076  -0.010
    1UNL    C12   15  -0.068   0.026   0.021
    1UNL     N3   16  -0.139   0.136   0.066
    1UNL    C13   17  -0.273   0.105   0.066
    1UNL    C14   18  -0.386   0.180   0.102
    1UNL    C15   19  -0.510   0.122   0.090
    1UNL    C16   20  -0.524  -0.010   0.042
    1UNL    C17   21  -0.415  -0.085   0.007
    1UNL    C18   22  -0.287  -0.027   0.018
    1UNL     H1   23   0.523  -0.139  -0.093
    1UNL     H2   24   0.595   0.257  -0.026
    1UNL     H3   25   0.359   0.302   0.018
    1UNL     H4   26   0.122   0.214   0.033
    1UNL     H5   27   0.079  -0.310  -0.096
    1UNL     H6   28   0.042  -0.280   0.073
    1UNL     H7   29  -0.177  -0.287  -0.024
    1UNL     H8   30  -0.125  -0.208  -0.172
    1UNL     H9   31  -0.099   0.225   0.096
    1UNL    H10   32  -0.375   0.280   0.138
    1UNL    H11   33  -0.598   0.178   0.117
    1UNL    H12   34  -0.623  -0.052   0.034
    1UNL    H13   35  -0.426  -0.185  -0.030
   0.00000   0.00000   0.00000   0.00000   0.00000   0.00000   0.00000   0.00000   0.00000
Generated with MDTraj, t= 1.0
 35
    1UNL     O1    1   0.305  -0.255  -0.070
    1UNL     C1    2   0.257  -0.144  -0.054
    1UNL     C2    3   0.350  -0.028  -0.032
    1UNL     C3    4   0.484  -0.040  -0.060
    1UNL     N1    5   0.572   0.058  -0.061
    1UNL     C4    6   0.525   0.176  -0.036
    1UNL     C5    7   0.390   0.206  -0.019
    1UNL     C6    8   0.298   0.102  -0.026
    1UNL     C7    9   0.160   0.120   0.002
    1UNL     C8   10   0.075   0.011   0.004
    1UNL     N2   11   0.123  -0.115  -0.045
    1UNL     C9   12   0.038  -0.238  -0.054
    1UNL    C10   13  -0.119  -0.216  -0.045
    1UNL    C11   14  -0.151  -0.081   0.001
    1UNL    C12   15  -0.065   0.022   0.038
    1UNL     N3   16  -0.138   0.133   0.073
    1UNL    C13   17  -0.273   0.106   0.076
    1UNL    C14   18  -0.389   0.175   0.114
    1UNL    C15   19  -0.507   0.123   0.083
    1UNL    C16   20  -0.529   0.000   0.021
    1UNL    C17   21  -0.422  -0.077   0.000
    1UNL    C18   22  -0.284  -0.027   0.019
    1UNL     H1   23   0.525  -0.137  -0.085
    1UNL     H2   24   0.598   0.256  -0.017
    1UNL     H3   25   0.355   0.308  -0.009
    1UNL     H4   26   0.119   0.221   0.033
    1UNL     H5   27   0.058  -0.295  -0.146
    1UNL     H6   28   0.067  -0.299   0.032
    1UNL     H7   29  -0.156  -0.288   0.028
    1UNL     H8   30  -0.155  -0.243  -0.142
    1UNL     H9   31  -0.103   0.202   0.135
    1UNL    H10   32  -0.382   0.259   0.184
    1UNL    H11   33  -0.601   0.180   0.095
    1UNL    H12   34  -0.626  -0.030  -0.005
    1UNL    H13   35  -0.431  -0.189  -0.023
   0.00000   0.00000   0.00000   0.00000   0.00000   0.00000   0.00000   0.00000   0.00000
Generated with MDTraj, t= 2.0
 35
    1UNL     O1    1   0.306  -0.253  -0.083
    1UNL     C1    2   0.261  -0.147  -0.051
    1UNL     C2    3   0.351  -0.030  -0.037
    1UNL     C3    4   0.484  -0.037  -0.069
    1UNL     N1    5   0.566   0.065  -0.069
    1UNL     C4    6   0.514   0.181  -0.030
    1UNL     C5    7   0.379   0.204  -0.009
    1UNL     C6    8   0.296   0.094  -0.004
    1UNL     C7    9   0.157   0.113   0.010
    1UNL     C8   10   0.072   0.003   0.014
    1UNL     N2   11   0.127  -0.124  -0.028
    1UNL     C9   12   0.035  -0.247  -0.029
    1UNL    C10   13  -0.110  -0.201  -0.082
    1UNL    C11   14  -0.159  -0.081  -0.008
    1UNL    C12   15  -0.066   0.017   0.030
    1UNL     N3   16  -0.133   0.133   0.071
    1UNL    C13   17  -0.268   0.113   0.050
    1UNL    C14   18  -0.381   0.189   0.095
    1UNL    C15   19  -0.503   0.128   0.078
    1UNL    C16   20  -0.518  -0.003   0.047
    1UNL    C17   21  -0.420  -0.090   0.027
    1UNL    C18   22  -0.291  -0.027   0.014
    1UNL     H1   23   0.518  -0.132  -0.111
    1UNL     H2   24   0.588   0.261  -0.029
    1UNL     H3   25   0.353   0.307   0.012
    1UNL     H4   26   0.123   0.206   0.035
    1UNL     H5   27   0.085  -0.327  -0.089
    1UNL     H6   28   0.022  -0.282   0.072
    1UNL     H7   29  -0.176  -0.289  -0.089
    1UNL     H8   30  -0.097  -0.164  -0.180
    1UNL     H9   31  -0.086   0.218   0.081
    1UNL    H10   32  -0.378   0.278   0.153
    1UNL    H11   33  -0.590   0.182   0.100
    1UNL    H12   34  -0.626  -0.043   0.035
    1UNL    H13   35  -0.423  -0.190   0.037
   0.00000   0.00000   0.00000   0.00000   0.00000   0.00000   0.00000   0.00000   0.00000
Generated with MDTraj, t= 3.0
 35
    1UNL     O1    1   0.298  -0.249  -0.083
    1UNL     C1    2   0.254  -0.139  -0.059
    1UNL     C2    3   0.351  -0.025  -0.046
    1UNL     C3    4   0.487  -0.043  -0.086
    1UNL     N1    5   0.574   0.051  -0.075
    1UNL     C4    6   0.528   0.168  -0.029
    1UNL     C5    7   0.403   0.200   0.011
    1UNL     C6    8   0.303   0.098   0.004
    1UNL     C7    9   0.161   0.123   0.019
    1UNL     C8   10   0.078   0.017  -0.001
    1UNL     N2   11   0.119  -0.111  -0.033
    1UNL     C9   12   0.034  -0.236  -0.012
    1UNL    C10   13  -0.115  -0.214  -0.039
    1UNL    C11   14  -0.155  -0.074  -0.012
    1UNL    C12   15  -0.069   0.032   0.015
    1UNL     N3   16  -0.143   0.143   0.052
    1UNL    C13   17  -0.281   0.110   0.055
    1UNL    C14   18  -0.389   0.172   0.110
    1UNL    C15   19  -0.508   0.111   0.092
    1UNL    C16   20  -0.522  -0.015   0.039
    1UNL    C17   21  -0.415  -0.086  -0.002
    1UNL    C18   22  -0.290  -0.024   0.006
    1UNL     H1   23   0.514  -0.135  -0.131
    1UNL     H2   24   0.601   0.245  -0.026
    1UNL     H3   25   0.370   0.295   0.041
    1UNL     H4   26   0.122   0.220   0.060
    1UNL     H5   27   0.077  -0.309  -0.086
    1UNL     H6   28   0.062  -0.273   0.085
    1UNL     H7   29  -0.188  -0.270   0.025
    1UNL     H8   30  -0.136  -0.239  -0.139
    1UNL     H9   31  -0.110   0.226   0.093
    1UNL    H10   32  -0.385   0.269   0.161
    1UNL    H11   33  -0.606   0.154   0.120
    1UNL    H12   34  -0.611  -0.060   0.028
    1UNL    H13   35  -0.430  -0.190  -0.048
   0.00000   0.00000   0.00000   0.00000   0.00000   0.00000   0.00000   0.00000   0.00000
Generated with MDTraj, t= 4.0
 35
    1UNL     O1    1   0.293  -0.251  -0.098
    1UNL     C1    2   0.258  -0.139  -0.067
    1UNL     C2    3   0.349  -0.026  -0.052
    1UNL     C3    4   0.487  -0.043  -0.068
    1UNL     N1    5   0.579   0.047  -0.051
    1UNL     C4    6   0.526   0.170  -0.027
    1UNL     C5    7   0.398   0.204  -0.009
    1UNL     C6    8   0.299   0.107  -0.028
    1UNL     C7    9   0.161   0.125   0.011
    1UNL     C8   10   0.079   0.011   0.007
    1UNL     N2   11   0.122  -0.117  -0.019
    1UNL     C9   12   0.029  -0.236  -0.012
    1UNL    C10   13  -0.106  -0.201  -0.068
    1UNL    C11   14  -0.155  -0.070  -0.006
    1UNL    C12   15  -0.066   0.027   0.028
    1UNL     N3   16  -0.140   0.137   0.071
    1UNL    C13   17  -0.273   0.100   0.072
    1UNL    C14   18  -0.390   0.182   0.084
    1UNL    C15   19  -0.516   0.116   0.079
    1UNL    C16   20  -0.525  -0.015   0.043
    1UNL    C17   21  -0.417  -0.092   0.014
    1UNL    C18   22  -0.290  -0.034   0.033
    1UNL     H1   23   0.531  -0.145  -0.088
    1UNL     H2   24   0.603   0.248  -0.005
    1UNL     H3   25   0.372   0.310   0.015
    1UNL     H4   26   0.137   0.229   0.033
    1UNL     H5   27   0.077  -0.310  -0.083
    1UNL     H6   28   0.029  -0.278   0.085
    1UNL     H7   29  -0.178  -0.283  -0.054
    1UNL     H8   30  -0.111  -0.176  -0.170
    1UNL     H9   31  -0.096   0.219   0.108
    1UNL    H10   32  -0.398   0.289   0.083
    1UNL    H11   33  -0.603   0.171   0.101
    1UNL    H12   34  -0.627  -0.064   0.055
    1UNL    H13   35  -0.423  -0.182  -0.040
   0.00000   0.00000   0.00000   0.00000   0.00000   0.00000   0.00000   0.00000   0.00000
Generated with MDTraj, t= 5.0
 35
    1UNL     O1    1   0.306  -0.255  -0.081
    1UNL     C1    2   0.261  -0.145  -0.057
    1UNL     C2    3   0.353  -0.027  -0.047
    1UNL     C3    4   0.489  -0.038  -0.055
    1UNL     N1    5   0.571   0.067  -0.055
    1UNL     C4    6   0.518   0.186  -0.035
    1UNL     C5    7   0.387   0.206  -0.012
    1UNL     C6    8   0.300   0.098  -0.015
    1UNL     C7    9   0.160   0.113   0.013
    1UNL     C8   10   0.077   0.006  -0.001
    1UNL     N2   11   0.120  -0.123  -0.033
    1UNL     C9   12   0.032  -0.248  -0.043
    1UNL    C10   13  -0.119  -0.219  -0.051
    1UNL    C11   14  -0.164  -0.080  -0.006
    1UNL    C12   15  -0.070   0.023   0.013
    1UNL     N3   16  -0.135   0.132   0.070
    1UNL    C13   17  -0.270   0.105   0.076
    1UNL    C14   18  -0.383   0.186   0.098
    1UNL    C15   19  -0.506   0.130   0.092
    1UNL    C16   20  -0.524  -0.005   0.040
    1UNL    C17   21  -0.415  -0.079  -0.004
    1UNL    C18   22  -0.288  -0.027   0.029
    1UNL     H1   23   0.540  -0.124  -0.072
    1UNL     H2   24   0.582   0.269  -0.037
    1UNL     H3   25   0.346   0.294   0.027
    1UNL     H4   26   0.129   0.205   0.045
    1UNL     H5   27   0.069  -0.304  -0.135
    1UNL     H6   28   0.061  -0.306   0.040
    1UNL     H7   29  -0.194  -0.283  -0.000
    1UNL     H8   30  -0.138  -0.218  -0.154
    1UNL     H9   31  -0.088   0.221   0.048
    1UNL    H10   32  -0.376   0.294   0.103
    1UNL    H11   33  -0.598   0.170   0.138
    1UNL    H12   34  -0.621  -0.052   0.042
    1UNL    H13   35  -0.433  -0.172  -0.055
   0.00000   0.00000   0.00000   0.00000   0.00000   0.00000   0.00000   0.00000   0.00000
Generated with MDTraj, t= 6.0
 35
    1UNL     O1    1   0.305  -0.252  -0.060
    1UNL     C1    2   0.257  -0.142  -0.046
    1UNL     C2    3   0.349  -0.025  -0.048
    1UNL     C3    4   0.483  -0.035  -0.073
    1UNL     N1    5   0.571   0.065  -0.066
    1UNL     C4    6   0.523   0.183  -0.033
    1UNL     C5    7   0.393   0.202   0.004
    1UNL     C6    8   0.297   0.096  -0.004
    1UNL     C7    9   0.159   0.113   0.009
    1UNL     C8   10   0.070   0.007  -0.008
    1UNL     N2   11   0.118  -0.120  -0.027
    1UNL     C9   12   0.034  -0.244  -0.043
    1UNL    C10   13  -0.122  -0.218  -0.061
    1UNL    C11   14  -0.156  -0.076  -0.016
    1UNL    C12   15  -0.070   0.021   0.013
    1UNL     N3   16  -0.136   0.132   0.061
    1UNL    C13   17  -0.265   0.102   0.070
    1UNL    C14   18  -0.377   0.185   0.101
    1UNL    C15   19  -0.502   0.126   0.094
    1UNL    C16   20  -0.528  -0.013   0.051
    1UNL    C17   21  -0.417  -0.079   0.001
    1UNL    C18   22  -0.286  -0.025   0.018
    1UNL     H1   23   0.519  -0.139  -0.110
    1UNL     H2   24   0.594   0.271  -0.040
    1UNL     H3   25   0.373   0.306   0.036
    1UNL     H4   26   0.120   0.214   0.042
    1UNL     H5   27   0.069  -0.280  -0.146
    1UNL     H6   28   0.064  -0.317   0.028
    1UNL     H7   29  -0.169  -0.295   0.004
    1UNL     H8   30  -0.153  -0.230  -0.161
    1UNL     H9   31  -0.099   0.230   0.071
    1UNL    H10   32  -0.364   0.291   0.126
    1UNL    H11   33  -0.587   0.186   0.104
    1UNL    H12   34  -0.625  -0.053   0.049
    1UNL    H13   35  -0.427  -0.180  -0.049
   0.00000   0.00000   0.00000   0.00000   0.00000   0.00000   0.00000   0.00000   0.00000
Generated with MDTraj, t= 7.0
 35
    1UNL     O1    1   0.293  -0.249  -0.088
    1UNL     C1    2   0.251  -0.141  -0.055
    1UNL     C2    3   0.350  -0.026  -0.038
    1UNL     C3    4   0.486  -0.042  -0.060
    1UNL     N1    5   0.577   0.049  -0.058
    1UNL     C4    6   0.532   0.171  -0.034
    1UNL     C5    7   0.398   0.203  -0.010
    1UNL     C6    8   0.304   0.101  -0.016
    1UNL     C7    9   0.166   0.119   0.011
    1UNL     C8   10   0.077   0.013   0.007
    1UNL     N2   11   0.125  -0.114  -0.020
    1UNL     C9   12   0.029  -0.233  -0.026
    1UNL    C10   13  -0.114  -0.194  -0.078
    1UNL    C11   14  -0.158  -0.071  -0.014
    1UNL    C12   15  -0.065   0.031   0.023
    1UNL     N3   16  -0.143   0.138   0.062
    1UNL    C13   17  -0.276   0.108   0.055
    1UNL    C14   18  -0.393   0.180   0.088
    1UNL    C15   19  -0.515   0.115   0.092
    1UNL    C16   20  -0.524  -0.022   0.055
    1UNL    C17   21  -0.409  -0.099   0.020
    1UNL    C18   22  -0.288  -0.033   0.019
    1UNL     H1   23   0.517  -0.135  -0.083
    1UNL     H2   24   0.606   0.242  -0.026
    1UNL     H3   25   0.365   0.304  -0.006
    1UNL     H4   26   0.121   0.212   0.024
    1UNL     H5   27   0.085  -0.319  -0.078
    1UNL     H6   28   0.013  -0.261   0.074
    1UNL     H7   29  -0.180  -0.274  -0.045
    1UNL     H8   30  -0.107  -0.191  -0.185
    1UNL     H9   31  -0.098   0.213   0.122
    1UNL    H10   32  -0.365   0.276   0.128
    1UNL    H11   33  -0.601   0.184   0.104
    1UNL    H12   34  -0.626  -0.072   0.037
    1UNL    H13   35  -0.415  -0.199   0.001
   0.00000   0.00000   0.00000   0.00000   0.00000   0.00000   0.00000   0.00000   0.00000
Generated with MDTraj, t= 8.0
 35
    1UNL     O1    1   0.292  -0.250  -0.084
    1UNL     C1    2   0.256  -0.140  -0.059
    1UNL     C2    3   0.353  -0.028  -0.050
    1UNL     C3    4   0.489  -0.041  -0.064
    1UNL     N1    5   0.577   0.053  -0.057
    1UNL     C4    6   0.531   0.170  -0.016
    1UNL     C5    7   0.399   0.201  -0.010
    1UNL     C6    8   0.299   0.099  -0.022
    1UNL     C7    9   0.163   0.118   0.001
    1UNL     C8   10   0.077   0.010  -0.005
    1UNL     N2   11   0.125  -0.115  -0.045
    1UNL     C9   12   0.029  -0.226  -0.007
    1UNL    C10   13  -0.114  -0.210  -0.046
    1UNL    C11   14  -0.154  -0.071  -0.006
    1UNL    C12   15  -0.067   0.034   0.014
    1UNL     N3   16  -0.138   0.142   0.055
    1UNL    C13   17  -0.278   0.107   0.059
    1UNL    C14   18  -0.393   0.171   0.120
    1UNL    C15   19  -0.516   0.113   0.100
    1UNL    C16   20  -0.527  -0.014   0.034
    1UNL    C17   21  -0.415  -0.091  -0.004
    1UNL    C18   22  -0.288  -0.025   0.012
    1UNL     H1   23   0.522  -0.145  -0.104
    1UNL     H2   24   0.603   0.255   0.009
    1UNL     H3   25   0.368   0.299   0.019
    1UNL     H4   26   0.131   0.221   0.024
    1UNL     H5   27   0.070  -0.326  -0.048
    1UNL     H6   28   0.038  -0.229   0.098
    1UNL     H7   29  -0.165  -0.293   0.001
    1UNL     H8   30  -0.114  -0.228  -0.152
    1UNL     H9   31  -0.107   0.220   0.122
    1UNL    H10   32  -0.371   0.258   0.183
    1UNL    H11   33  -0.598   0.161   0.148
    1UNL    H12   34  -0.619  -0.056   0.017
    1UNL    H13   35  -0.420  -0.204  -0.027
   0.00000   0.00000   0.00000   0.00000   0.00000   0.00000   0.00000   0.00000   0.00000
Generated with MDTraj, t= 9.0
 35
    1UNL     O1    1   0.303  -0.255  -0.075
    1UNL     C1    2   0.258  -0.144  -0.045
    1UNL     C2    3   0.349  -0.025  -0.038
    1UNL     C3    4   0.484  -0.034  -0.068
    1UNL     N1    5   0.572   0.061  -0.058
    1UNL     C4    6   0.519   0.184  -0.030
    1UNL     C5    7   0.387   0.204  -0.011
    1UNL     C6    8   0.299   0.097  -0.010
    1UNL     C7    9   0.155   0.111   0.004
    1UNL     C8   10   0.074   0.003   0.004
    1UNL     N2   11   0.122  -0.121  -0.029
    1UNL     C9   12   0.031  -0.242  -0.040
    1UNL    C10   13  -0.113  -0.206  -0.081
    1UNL    C11   14  -0.161  -0.081  -0.005
    1UNL    C12   15  -0.068   0.013   0.029
    1UNL     N3   16  -0.140   0.138   0.059
    1UNL    C13   17  -0.273   0.106   0.061
    1UNL    C14   18  -0.375   0.179   0.102
    1UNL    C15   19  -0.501   0.128   0.086
    1UNL    C16   20  -0.521  -0.008   0.046
    1UNL    C17   21  -0.411  -0.082   0.022
    1UNL    C18   22  -0.287  -0.026   0.015
    1UNL     H1   23   0.524  -0.120  -0.100
    1UNL     H2   24   0.591   0.256  -0.038
    1UNL     H3   25   0.345   0.303   0.013
    1UNL     H4   26   0.114   0.211   0.019
    1UNL     H5   27   0.086  -0.318  -0.105
    1UNL     H6   28   0.028  -0.279   0.059
    1UNL     H7   29  -0.175  -0.289  -0.055
    1UNL     H8   30  -0.121  -0.188  -0.189
    1UNL     H9   31  -0.103   0.236   0.085
    1UNL    H10   32  -0.353   0.278   0.129
    1UNL    H11   33  -0.584   0.191   0.117
    1UNL    H12   34  -0.624  -0.049   0.060
    1UNL    H13   35  -0.422  -0.182  -0.002
   0.00000   0.00000   0.00000   0.00000   0.00000   0.00000   0.00000   0.00000   0.00000
Generated with MDTraj, t= 10.0
 35
    1UNL     O1    1   0.304  -0.252  -0.070
    1UNL     C1    2   0.258  -0.140  -0.047
    1UNL     C2    3   0.352  -0.030  -0.035
    1UNL     C3    4   0.483  -0.043  -0.070
    1UNL     N1    5   0.570   0.059  -0.069
    1UNL     C4    6   0.524   0.180  -0.040
    1UNL     C5    7   0.400   0.211  -0.006
    1UNL     C6    8   0.302   0.105  -0.005
    1UNL     C7    9   0.157   0.113   0.019
    1UNL     C8   10   0.073   0.007  -0.001
    1UNL     N2   11   0.117  -0.116  -0.029
    1UNL     C9   12   0.034  -0.234  -0.049
    1UNL    C10   13  -0.120  -0.218  -0.062
    1UNL    C11   14  -0.156  -0.082  -0.004
    1UNL    C12   15  -0.069   0.023   0.022
    1UNL     N3   16  -0.133   0.133   0.071
    1UNL    C13   17  -0.271   0.103   0.059
    1UNL    C14   18  -0.383   0.180   0.099
    1UNL    C15   19  -0.507   0.124   0.091
    1UNL    C16   20  -0.527  -0.007   0.038
    1UNL    C17   21  -0.421  -0.085   0.008
    1UNL    C18   22  -0.285  -0.027   0.016
    1UNL     H1   23   0.525  -0.152  -0.077
    1UNL     H2   24   0.596   0.269  -0.045
    1UNL     H3   25   0.367   0.310  -0.001
    1UNL     H4   26   0.136   0.215   0.037
    1UNL     H5   27   0.073  -0.273  -0.150
    1UNL     H6   28   0.062  -0.298   0.030
    1UNL     H7   29  -0.177  -0.291  -0.011
    1UNL     H8   30  -0.153  -0.224  -0.168
    1UNL     H9   31  -0.097   0.227   0.099
    1UNL    H10   32  -0.379   0.288   0.120
    1UNL    H11   33  -0.596   0.174   0.127
    1UNL    H12   34  -0.629  -0.042   0.034
    1UNL    H13   35  -0.437  -0.184  -0.033
   0.00000   0.00000   0.00000   0.00000   0.00000   0.00000   0.00000   0.00000   0.00000
Generated with MDTraj, t= 11.0
 35
    1UNL     O1    1   0.299  -0.259  -0.087
    1UNL     C1    2   0.260  -0.143  -0.061
    1UNL     C2    3   0.351  -0.024  -0.058
    1UNL     C3    4   0.488  -0.042  -0.076
    1UNL     N1    5   0.575   0.058  -0.063
    1UNL     C4    6   0.529   0.174  -0.023
    1UNL     C5    7   0.396   0.204  -0.003
    1UNL     C6    8   0.305   0.101  -0.019
    1UNL     C7    9   0.163   0.114   0.008
    1UNL     C8   10   0.072   0.009  -0.001
    1UNL     N2   11   0.124  -0.116  -0.035
    1UNL     C9   12   0.031  -0.234  -0.002
    1UNL    C10   13  -0.115  -0.205  -0.054
    1UNL    C11   14  -0.163  -0.072  -0.007
    1UNL    C12   15  -0.071   0.029   0.020
    1UNL     N3   16  -0.139   0.140   0.076
    1UNL    C13   17  -0.273   0.103   0.074
    1UNL    C14   18  -0.393   0.175   0.097
    1UNL    C15   19  -0.520   0.116   0.088
    1UNL    C16   20  -0.519  -0.012   0.039
    1UNL    C17   21  -0.411  -0.082  -0.008
    1UNL    C18   22  -0.286  -0.031   0.024
    1UNL     H1   23   0.535  -0.131  -0.077
    1UNL     H2   24   0.605   0.243  -0.014
    1UNL     H3   25   0.350   0.300   0.031
    1UNL     H4   26   0.124   0.213   0.039
    1UNL     H5   27   0.075  -0.325  -0.055
    1UNL     H6   28   0.028  -0.244   0.102
    1UNL     H7   29  -0.184  -0.283  -0.035
    1UNL     H8   30  -0.117  -0.186  -0.164
    1UNL     H9   31  -0.079   0.217   0.107
    1UNL    H10   32  -0.401   0.277   0.127
    1UNL    H11   33  -0.611   0.170   0.109
    1UNL    H12   34  -0.616  -0.052   0.023
    1UNL    H13   35  -0.425  -0.182  -0.063
   0.00000   0.00000   0.00000   0.00000   0.00000   0.00000   0.00000   0.00000   0.00000
Generated with MDTraj, t= 12.0
 35
    1UNL     O1    1   0.295  -0.243  -0.101
    1UNL     C1    2   0.255  -0.139  -0.050
    1UNL     C2    3   0.352  -0.027  -0.044
    1UNL     C3    4   0.490  -0.044  -0.070
    1UNL     N1    5   0.578   0.054  -0.061
    1UNL     C4    6   0.525   0.174  -0.040
    1UNL     C5    7   0.396   0.206  -0.008
    1UNL     C6    8   0.298   0.100  -0.008
    1UNL     C7    9   0.160   0.116   0.017
    1UNL     C8   10   0.071   0.003   0.016
    1UNL     N2   11   0.123  -0.122  -0.015
    1UNL     C9   12   0.026  -0.239  -0.022
    1UNL    C10   13  -0.113  -0.206  -0.061
    1UNL    C11   14  -0.151  -0.075  -0.010
    1UNL    C12   15  -0.070   0.029   0.026
    1UNL     N3   16  -0.143   0.140   0.059
    1UNL    C13   17  -0.275   0.104   0.067
    1UNL    C14   18  -0.389   0.180   0.085
    1UNL    C15   19  -0.509   0.113   0.090
    1UNL    C16   20  -0.521  -0.016   0.049
    1UNL    C17   21  -0.411  -0.078   0.001
    1UNL    C18   22  -0.282  -0.027   0.022
    1UNL     H1   23   0.519  -0.155  -0.076
    1UNL     H2   24   0.599   0.263  -0.046
    1UNL     H3   25   0.383   0.305   0.023
    1UNL     H4   26   0.118   0.206   0.047
    1UNL     H5   27   0.077  -0.300  -0.103
    1UNL     H6   28   0.032  -0.283   0.073
    1UNL     H7   29  -0.188  -0.273  -0.027
    1UNL     H8   30  -0.116  -0.215  -0.172
    1UNL     H9   31  -0.108   0.234   0.065
    1UNL    H10   32  -0.390   0.282   0.126
    1UNL    H11   33  -0.606   0.162   0.103
    1UNL    H12   34  -0.619  -0.069   0.037
    1UNL    H13   35  -0.421  -0.168  -0.041
   0.00000   0.00000   0.00000   0.00000   0.00000   0.00000   0.00000   0.00000   0.00000
Generated with MDTraj, t= 13.0
 35
    1UNL     O1    1   0.307  -0.250  -0.063
    1UNL     C1    2   0.253  -0.139  -0.051
    1UNL     C2    3   0.347  -0.021  -0.052
    1UNL     C3    4   0.481  -0.033  -0.085
    1UNL     N1    5   0.570   0.058  -0.070
    1UNL     C4    6   0.529   0.178  -0.027
    1UNL     C5    7   0.399   0.204   0.010
    1UNL     C6    8   0.299   0.102  -0.010
    1UNL     C7    9   0.162   0.114   0.015
    1UNL     C8   10   0.075   0.010  -0.006
    1UNL     N2   11   0.120  -0.119  -0.028
    1UNL     C9   12   0.030  -0.238  -0.036
    1UNL    C10   13  -0.120  -0.213  -0.061
    1UNL    C11   14  -0.163  -0.087  -0.004
    1UNL    C12   15  -0.068   0.024   0.011
    1UNL     N3   16  -0.137   0.131   0.063
    1UNL    C13   17  -0.270   0.101   0.069
    1UNL    C14   18  -0.381   0.180   0.097
    1UNL    C15   19  -0.503   0.125   0.082
    1UNL    C16   20  -0.523  -0.003   0.040
    1UNL    C17   21  -0.420  -0.084   0.012
    1UNL    C18   22  -0.289  -0.032   0.024
    1UNL     H1   23   0.512  -0.130  -0.101
    1UNL     H2   24   0.607   0.242  -0.009
    1UNL     H3   25   0.359   0.304   0.038
    1UNL     H4   26   0.113   0.206   0.052
    1UNL     H5   27   0.076  -0.302  -0.117
    1UNL     H6   28   0.049  -0.280   0.059
    1UNL     H7   29  -0.161  -0.299  -0.013
    1UNL     H8   30  -0.152  -0.214  -0.168
    1UNL     H9   31  -0.099   0.221   0.074
    1UNL    H10   32  -0.365   0.278   0.133
    1UNL    H11   33  -0.588   0.179   0.113
    1UNL    H12   34  -0.617  -0.040   0.020
    1UNL    H13   35  -0.427  -0.193  -0.016
   0.00000   0.00000   0.00000   0.00000   0.00000   0.00000   0.00000   0.00000   0.00000
Generated with MDTraj, t= 14.0
 35
    1UNL     O1    1   0.302  -0.254  -0.087
    1UNL     C1    2   0.259  -0.144  -0.055
    1UNL     C2    3   0.349  -0.031  -0.042
    1UNL     C3    4   0.484  -0.035  -0.054
    1UNL     N1    5   0.572   0.064  -0.055
    1UNL     C4    6   0.518   0.189  -0.036
    1UNL     C5    7   0.389   0.203  -0.020
    1UNL     C6    8   0.299   0.094  -0.011
    1UNL     C7    9   0.163   0.108   0.011
    1UNL     C8   10   0.078  -0.000   0.009
    1UNL     N2   11   0.124  -0.126  -0.035
    1UNL     C9   12   0.030  -0.238  -0.024
    1UNL    C10   13  -0.123  -0.209  -0.068
    1UNL    C11   14  -0.157  -0.074  -0.008
    1UNL    C12   15  -0.064   0.022   0.022
    1UNL     N3   16  -0.130   0.140   0.068
    1UNL    C13   17  -0.266   0.109   0.066
    1UNL    C14   18  -0.384   0.181   0.104
    1UNL    C15   19  -0.510   0.128   0.089
    1UNL    C16   20  -0.519  -0.008   0.042
    1UNL    C17   21  -0.420  -0.091   0.009
    1UNL    C18   22  -0.291  -0.026   0.010
    1UNL     H1   23   0.534  -0.133  -0.078
    1UNL     H2   24   0.583   0.283  -0.031
    1UNL     H3   25   0.353   0.302  -0.015
    1UNL     H4   26   0.127   0.205   0.030
    1UNL     H5   27   0.077  -0.321  -0.083
    1UNL     H6   28   0.024  -0.262   0.078
    1UNL     H7   29  -0.190  -0.285  -0.031
    1UNL     H8   30  -0.111  -0.212  -0.178
    1UNL     H9   31  -0.098   0.203   0.136
    1UNL    H10   32  -0.380   0.287   0.125
    1UNL    H11   33  -0.599   0.183   0.124
    1UNL    H12   34  -0.627  -0.043   0.035
    1UNL    H13   35  -0.433  -0.192  -0.035
   0.00000   0.00000   0.00000   0.00000   0.00000   0.00000   0.00000   0.00000   0.00000
Generated with MDTraj, t= 15.0
 35
    1UNL     O1    1   0.296  -0.252  -0.079
    1UNL     C1    2   0.256  -0.138  -0.048
    1UNL     C2    3   0.354  -0.027  -0.044
    1UNL     C3    4   0.487  -0.042  -0.065
    1UNL     N1    5   0.582   0.051  -0.060
    1UNL     C4    6   0.532   0.172  -0.027
    1UNL     C5    7   0.400   0.201  -0.020
    1UNL     C6    8   0.301   0.099  -0.021
    1UNL     C7    9   0.161   0.119  -0.002
    1UNL     C8   10   0.077   0.015   0.001
    1UNL     N2   11   0.122  -0.113  -0.028
    1UNL     C9   12   0.030  -0.233  -0.023
    1UNL    C10   13  -0.118  -0.204  -0.066
    1UNL    C11   14  -0.156  -0.073  -0.014
    1UNL    C12   15  -0.068   0.026   0.028
    1UNL     N3   16  -0.143   0.137   0.068
    1UNL    C13   17  -0.281   0.106   0.069
    1UNL    C14   18  -0.393   0.173   0.114
    1UNL    C15   19  -0.512   0.114   0.094
    1UNL    C16   20  -0.530  -0.016   0.034
    1UNL    C17   21  -0.411  -0.088   0.006
    1UNL    C18   22  -0.284  -0.021   0.013
    1UNL     H1   23   0.531  -0.133  -0.099
    1UNL     H2   24   0.601   0.250  -0.020
    1UNL     H3   25   0.354   0.297   0.004
    1UNL     H4   26   0.129   0.218   0.021
    1UNL     H5   27   0.069  -0.325  -0.072
    1UNL     H6   28   0.028  -0.257   0.081
    1UNL     H7   29  -0.175  -0.284  -0.021
    1UNL     H8   30  -0.130  -0.199  -0.175
    1UNL     H9   31  -0.104   0.217   0.109
    1UNL    H10   32  -0.381   0.272   0.157
    1UNL    H11   33  -0.604   0.159   0.123
    1UNL    H12   34  -0.624  -0.060   0.017
    1UNL    H13   35  -0.415  -0.177  -0.042
   0.00000   0.00000   0.00000   0.00000   0.00000   0.00000   0.00000   0.00000   0.00000
Generated with MDTraj, t= 16.0
 35
    1UNL     O1    1   0.297  -0.251  -0.066
    1UNL     C1    2   0.255  -0.138  -0.042
    1UNL     C2    3   0.351  -0.026  -0.035
    1UNL     C3    4   0.477  -0.042  -0.074
    1UNL     N1    5   0.575   0.050  -0.073
    1UNL     C4    6   0.531   0.171  -0.031
    1UNL     C5    7   0.402   0.205  -0.001
    1UNL     C6    8   0.301   0.104  -0.009
    1UNL     C7    9   0.160   0.123   0.010
    1UNL     C8   10   0.070   0.013  -0.005
    1UNL     N2   11   0.118  -0.116  -0.022
    1UNL     C9   12   0.029  -0.234  -0.031
    1UNL    C10   13  -0.110  -0.199  -0.075
    1UNL    C11   14  -0.155  -0.074  -0.013
    1UNL    C12   15  -0.068   0.027   0.008
    1UNL     N3   16  -0.143   0.135   0.060
    1UNL    C13   17  -0.274   0.100   0.059
    1UNL    C14   18  -0.379   0.180   0.109
    1UNL    C15   19  -0.506   0.114   0.096
    1UNL    C16   20  -0.528  -0.019   0.047
    1UNL    C17   21  -0.415  -0.087   0.008
    1UNL    C18   22  -0.288  -0.031   0.013
    1UNL     H1   23   0.499  -0.144  -0.109
    1UNL     H2   24   0.617   0.242  -0.027
    1UNL     H3   25   0.384   0.308   0.019
    1UNL     H4   26   0.132   0.231   0.011
    1UNL     H5   27   0.078  -0.307  -0.097
    1UNL     H6   28   0.035  -0.294   0.059
    1UNL     H7   29  -0.186  -0.273  -0.044
    1UNL     H8   30  -0.107  -0.191  -0.184
    1UNL     H9   31  -0.102   0.226   0.072
    1UNL    H10   32  -0.360   0.263   0.173
    1UNL    H11   33  -0.588   0.169   0.139
    1UNL    H12   34  -0.629  -0.059   0.033
    1UNL    H13   35  -0.421  -0.198  -0.015
   0.00000   0.00000   0.00000   0.00000   0.00000   0.00000   0.00000   0.00000   0.00000
Generated with MDTraj, t= 17.0
 35
    1UNL     O1    1   0.302  -0.259  -0.077
    1UNL     C1    2   0.256  -0.146  -0.052
    1UNL     C2    3   0.350  -0.028  -0.039
    1UNL     C3    4   0.487  -0.042  -0.058
    1UNL     N1    5   0.568   0.063  -0.050
    1UNL     C4    6   0.516   0.183  -0.038
    1UNL     C5    7   0.387   0.208  -0.012
    1UNL     C6    8   0.298   0.099  -0.010
    1UNL     C7    9   0.162   0.116   0.017
    1UNL     C8   10   0.079   0.003  -0.001
    1UNL     N2   11   0.123  -0.119  -0.039
    1UNL     C9   12   0.029  -0.240  -0.029
    1UNL    C10   13  -0.119  -0.209  -0.071
    1UNL    C11   14  -0.162  -0.076  -0.017
    1UNL    C12   15  -0.068   0.022   0.023
    1UNL     N3   16  -0.128   0.140   0.056
    1UNL    C13   17  -0.268   0.111   0.056
    1UNL    C14   18  -0.385   0.184   0.096
    1UNL    C15   19  -0.510   0.124   0.109
    1UNL    C16   20  -0.518  -0.013   0.056
    1UNL    C17   21  -0.411  -0.086   0.000
    1UNL    C18   22  -0.288  -0.026   0.016
    1UNL     H1   23   0.528  -0.138  -0.084
    1UNL     H2   24   0.576   0.269  -0.054
    1UNL     H3   25   0.332   0.299   0.004
    1UNL     H4   26   0.121   0.211   0.030
    1UNL     H5   27   0.071  -0.314  -0.097
    1UNL     H6   28   0.047  -0.300   0.060
    1UNL     H7   29  -0.190  -0.289  -0.043
    1UNL     H8   30  -0.126  -0.190  -0.177
    1UNL     H9   31  -0.079   0.213   0.109
    1UNL    H10   32  -0.359   0.281   0.142
    1UNL    H11   33  -0.596   0.179   0.143
    1UNL    H12   34  -0.615  -0.070   0.048
    1UNL    H13   35  -0.429  -0.181  -0.041
   0.00000   0.00000   0.00000   0.00000   0.00000   0.00000   0.00000   0.00000   0.00000
Generated with MDTraj, t= 18.0
 35
    1UNL     O1    1   0.304  -0.255  -0.073
    1UNL     C1    2   0.257  -0.143  -0.062
    1UNL     C2    3   0.353  -0.028  -0.058
    1UNL     C3    4   0.495  -0.042  -0.062
    1UNL     N1    5   0.582   0.056  -0.052
    1UNL     C4    6   0.526   0.179  -0.016
    1UNL     C5    7   0.394   0.202  -0.008
    1UNL     C6    8   0.299   0.101  -0.028
    1UNL     C7    9   0.159   0.122  -0.005
    1UNL     C8   10   0.069   0.012  -0.015
    1UNL     N2   11   0.119  -0.121  -0.049
    1UNL     C9   12   0.036  -0.237  -0.026
    1UNL    C10   13  -0.114  -0.210  -0.058
    1UNL    C11   14  -0.162  -0.078  -0.000
    1UNL    C12   15  -0.070   0.026   0.023
    1UNL     N3   16  -0.142   0.138   0.071
    1UNL    C13   17  -0.271   0.099   0.077
    1UNL    C14   18  -0.388   0.180   0.101
    1UNL    C15   19  -0.512   0.123   0.091
    1UNL    C16   20  -0.530  -0.009   0.041
    1UNL    C17   21  -0.418  -0.084   0.005
    1UNL    C18   22  -0.291  -0.030   0.034
    1UNL     H1   23   0.537  -0.141  -0.079
    1UNL     H2   24   0.597   0.263  -0.010
    1UNL     H3   25   0.361   0.299   0.029
    1UNL     H4   26   0.124   0.223   0.026
    1UNL     H5   27   0.082  -0.308  -0.093
    1UNL     H6   28   0.061  -0.282   0.071
    1UNL     H7   29  -0.184  -0.293  -0.031
    1UNL     H8   30  -0.115  -0.197  -0.165
    1UNL     H9   31  -0.107   0.225   0.120
    1UNL    H10   32  -0.377   0.283   0.120
    1UNL    H11   33  -0.599   0.183   0.109
    1UNL    H12   34  -0.624  -0.044   0.030
    1UNL    H13   35  -0.410  -0.176  -0.054
   0.00000   0.00000   0.00000   0.00000   0.00000   0.00000   0.00000   0.00000   0.00000
Generated with MDTraj, t= 19.0
 35
    1UNL     O1    1   0.292  -0.244  -0.100
    1UNL     C1    2   0.255  -0.138  -0.051
    1UNL     C2    3   0.353  -0.028  -0.034
    1UNL     C3    4   0.488  -0.048  -0.060
    1UNL     N1    5   0.575   0.050  -0.068
    1UNL     C4    6   0.523   0.174  -0.037
    1UNL     C5    7   0.396   0.207  -0.002
    1UNL     C6    8   0.300   0.102  -0.007
    1UNL     C7    9   0.161   0.122   0.010
    1UNL     C8   10   0.077   0.013   0.009
    1UNL     N2   11   0.122  -0.120  -0.007
    1UNL     C9   12   0.034  -0.239  -0.030
    1UNL    C10   13  -0.113  -0.208  -0.065
    1UNL    C11   14  -0.154  -0.080  -0.011
    1UNL    C12   15  -0.068   0.024   0.011
    1UNL     N3   16  -0.144   0.135   0.061
    1UNL    C13   17  -0.276   0.112   0.059
    1UNL    C14   18  -0.385   0.179   0.099
    1UNL    C15   19  -0.504   0.116   0.091
    1UNL    C16   20  -0.526  -0.019   0.048
    1UNL    C17   21  -0.416  -0.083   0.012
    1UNL    C18   22  -0.286  -0.022   0.012
    1UNL     H1   23   0.527  -0.148  -0.073
    1UNL     H2   24   0.598   0.252  -0.041
    1UNL     H3   25   0.365   0.305   0.021
    1UNL     H4   26   0.112   0.215   0.016
    1UNL     H5   27   0.076  -0.298  -0.111
    1UNL     H6   28   0.040  -0.299   0.062
    1UNL     H7   29  -0.175  -0.289  -0.017
    1UNL     H8   30  -0.123  -0.205  -0.172
    1UNL     H9   31  -0.103   0.234   0.060
    1UNL    H10   32  -0.376   0.290   0.109
    1UNL    H11   33  -0.591   0.161   0.135
    1UNL    H12   34  -0.627  -0.074   0.055
    1UNL    H13   35  -0.417  -0.186  -0.024
   0.00000   0.00000   0.00000   0.00000   0.00000   0.00000   0.00000   0.00000   0.00000
Generated with MDTraj, t= 20.0
 35
    1UNL     O1    1   0.296  -0.257  -0.067
    1UNL     C1    2   0.262  -0.140  -0.057
    1UNL     C2    3   0.346  -0.025  -0.055
    1UNL     C3    4   0.474  -0.035  -0.087
    1UNL     N1    5   0.571   0.058  -0.069
    1UNL     C4    6   0.522   0.175  -0.026
    1UNL     C5    7   0.394   0.200   0.011
    1UNL     C6    8   0.297   0.097  -0.009
    1UNL     C7    9   0.163   0.116   0.014
    1UNL     C8   10   0.078   0.012   0.002
    1UNL     N2   11   0.123  -0.117  -0.037
    1UNL     C9   12   0.034  -0.244  -0.021
    1UNL    C10   13  -0.115  -0.208  -0.063
    1UNL    C11   14  -0.154  -0.074  -0.016
    1UNL    C12   15  -0.066   0.029   0.023
    1UNL     N3   16  -0.133   0.143   0.064
    1UNL    C13   17  -0.270   0.106   0.065
    1UNL    C14   18  -0.389   0.182   0.101
    1UNL    C15   19  -0.510   0.122   0.088
    1UNL    C16   20  -0.520  -0.011   0.043
    1UNL    C17   21  -0.415  -0.093   0.009
    1UNL    C18   22  -0.286  -0.031   0.012
    1UNL     H1   23   0.514  -0.130  -0.122
    1UNL     H2   24   0.594   0.251  -0.005
    1UNL     H3   25   0.365   0.301   0.049
    1UNL     H4   26   0.132   0.211   0.052
    1UNL     H5   27   0.069  -0.328  -0.075
    1UNL     H6   28   0.026  -0.271   0.087
    1UNL     H7   29  -0.184  -0.285  -0.017
    1UNL     H8   30  -0.117  -0.211  -0.170
    1UNL     H9   31  -0.093   0.238   0.093
    1UNL    H10   32  -0.392   0.284   0.123
    1UNL    H11   33  -0.606   0.174   0.101
    1UNL    H12   34  -0.616  -0.056   0.042
    1UNL    H13   35  -0.414  -0.194  -0.019
   0.00000   0.00000   0.00000   0.00000   0.00000   0.00000   0.00000   0.00000   0.00000
Generated with MDTraj, t= 21.0
 35
    1UNL     O1    1   0.305  -0.252  -0.085
    1UNL     C1    2   0.263  -0.143  -0.056
    1UNL     C2    3   0.354  -0.030  -0.044
    1UNL     C3    4   0.491  -0.040  -0.058
    1UNL     N1    5   0.581   0.061  -0.060
    1UNL     C4    6   0.522   0.180  -0.040
    1UNL     C5    7   0.388   0.202  -0.022
    1UNL     C6    8   0.301   0.097  -0.013
    1UNL     C7    9   0.163   0.111   0.020
    1UNL     C8   10   0.076   0.007   0.009
    1UNL     N2   11   0.127  -0.117  -0.040
    1UNL     C9   12   0.038  -0.237  -0.038
    1UNL    C10   13  -0.116  -0.212  -0.056
    1UNL    C11   14  -0.158  -0.080  -0.001
    1UNL    C12   15  -0.069   0.024   0.025
    1UNL     N3   16  -0.141   0.138   0.067
    1UNL    C13   17  -0.275   0.107   0.070
    1UNL    C14   18  -0.388   0.185   0.104
    1UNL    C15   19  -0.515   0.123   0.083
    1UNL    C16   20  -0.527  -0.004   0.034
    1UNL    C17   21  -0.425  -0.084   0.004
    1UNL    C18   22  -0.293  -0.030   0.024
    1UNL     H1   23   0.546  -0.136  -0.075
    1UNL     H2   24   0.597   0.261  -0.026
    1UNL     H3   25   0.346   0.296  -0.006
    1UNL     H4   26   0.121   0.199   0.074
    1UNL     H5   27   0.076  -0.313  -0.103
    1UNL     H6   28   0.060  -0.282   0.062
    1UNL     H7   29  -0.183  -0.288  -0.003
    1UNL     H8   30  -0.148  -0.217  -0.159
    1UNL     H9   31  -0.095   0.200   0.140
    1UNL    H10   32  -0.383   0.280   0.160
    1UNL    H11   33  -0.605   0.176   0.092
    1UNL    H12   34  -0.622  -0.045   0.013
    1UNL    H13   35  -0.447  -0.192  -0.018
   0.00000   0.00000   0.00000   0.00000   0.00000   0.00000   0.00000   0.00000   0.00000
Generated with MDTraj, t= 22.0
 35
    1UNL     O1    1   0.302  -0.250  -0.086
    1UNL     C1    2   0.255  -0.144  -0.052
    1UNL     C2    3   0.343  -0.028  -0.049
    1UNL     C3    4   0.484  -0.043  -0.074
    1UNL     N1    5   0.570   0.061  -0.056
    1UNL     C4    6   0.517   0.178  -0.026
    1UNL     C5    7   0.386   0.207  -0.014
    1UNL     C6    8   0.293   0.098  -0.021
    1UNL     C7    9   0.157   0.118  -0.001
    1UNL     C8   10   0.076   0.006   0.010
    1UNL     N2   11   0.122  -0.126  -0.009
    1UNL     C9   12   0.038  -0.239  -0.027
    1UNL    C10   13  -0.106  -0.206  -0.074
    1UNL    C11   14  -0.155  -0.078  -0.006
    1UNL    C12   15  -0.068   0.024   0.024
    1UNL     N3   16  -0.136   0.128   0.072
    1UNL    C13   17  -0.272   0.106   0.066
    1UNL    C14   18  -0.380   0.180   0.103
    1UNL    C15   19  -0.498   0.122   0.080
    1UNL    C16   20  -0.525  -0.004   0.033
    1UNL    C17   21  -0.414  -0.078   0.010
    1UNL    C18   22  -0.285  -0.028   0.028
    1UNL     H1   23   0.514  -0.140  -0.090
    1UNL     H2   24   0.586   0.255  -0.011
    1UNL     H3   25   0.346   0.312  -0.001
    1UNL     H4   26   0.117   0.213   0.013
    1UNL     H5   27   0.096  -0.312  -0.079
    1UNL     H6   28   0.034  -0.289   0.073
    1UNL     H7   29  -0.179  -0.287  -0.049
    1UNL     H8   30  -0.124  -0.190  -0.180
    1UNL     H9   31  -0.100   0.223   0.101
    1UNL    H10   32  -0.386   0.269   0.164
    1UNL    H11   33  -0.592   0.177   0.108
    1UNL    H12   34  -0.632  -0.040   0.008
    1UNL    H13   35  -0.418  -0.179  -0.014
   0.00000   0.00000   0.00000   0.00000   0.00000   0.00000   0.00000   0.00000   0.00000
Generated with MDTraj, t= 23.0
 35
    1UNL     O1    1   0.300  -0.254  -0.069
    1UNL     C1    2   0.260  -0.141  -0.049
    1UNL     C2    3   0.345  -0.025  -0.037
    1UNL     C3    4   0.476  -0.040  -0.081
    1UNL     N1    5   0.569   0.054  -0.074
    1UNL     C4    6   0.528   0.175  -0.037
    1UNL     C5    7   0.400   0.196   0.003
    1UNL     C6    8   0.302   0.102  -0.001
    1UNL     C7    9   0.163   0.120   0.016
    1UNL     C8   10   0.076   0.013  -0.003
    1UNL     N2   11   0.120  -0.115  -0.034
    1UNL     C9   12   0.038  -0.233  -0.025
    1UNL    C10   13  -0.109  -0.210  -0.052
    1UNL    C11   14  -0.156  -0.071  -0.022
    1UNL    C12   15  -0.067   0.031   0.015
    1UNL     N3   16  -0.142   0.142   0.064
    1UNL    C13   17  -0.274   0.103   0.069
    1UNL    C14   18  -0.388   0.170   0.116
    1UNL    C15   19  -0.512   0.117   0.089
    1UNL    C16   20  -0.520  -0.012   0.039
    1UNL    C17   21  -0.418  -0.089  -0.003
    1UNL    C18   22  -0.288  -0.027   0.010
    1UNL     H1   23   0.503  -0.149  -0.110
    1UNL     H2   24   0.608   0.254  -0.051
    1UNL     H3   25   0.368   0.292   0.030
    1UNL     H4   26   0.122   0.220   0.043
    1UNL     H5   27   0.068  -0.302  -0.100
    1UNL     H6   28   0.065  -0.287   0.070
    1UNL     H7   29  -0.178  -0.277   0.004
    1UNL     H8   30  -0.129  -0.227  -0.158
    1UNL     H9   31  -0.096   0.234   0.068
    1UNL    H10   32  -0.369   0.268   0.154
    1UNL    H11   33  -0.594   0.177   0.111
    1UNL    H12   34  -0.614  -0.047   0.037
    1UNL    H13   35  -0.436  -0.181  -0.062
   0.00000   0.00000   0.00000   0.00000   0.00000   0.00000   0.00000   0.00000   0.00000
Generated with MDTraj, t= 24.0
 35
    1UNL     O1    1   0.302  -0.254  -0.082
    1UNL     C1    2   0.266  -0.144  -0.051
    1UNL     C2    3   0.352  -0.030  -0.040
    1UNL     C3    4   0.489  -0.045  -0.061
    1UNL     N1    5   0.573   0.058  -0.064
    1UNL     C4    6   0.519   0.177  -0.035
    1UNL     C5    7   0.388   0.200  -0.016
    1UNL     C6    8   0.300   0.094  -0.016
    1UNL     C7    9   0.165   0.113   0.024
    1UNL     C8   10   0.075   0.011   0.009
    1UNL     N2   11   0.124  -0.117  -0.033
    1UNL     C9   12   0.033  -0.230  -0.024
    1UNL    C10   13  -0.106  -0.193  -0.078
    1UNL    C11   14  -0.160  -0.071  -0.016
    1UNL    C12   15  -0.067   0.025   0.021
    1UNL     N3   16  -0.133   0.131   0.073
    1UNL    C13   17  -0.279   0.108   0.056
    1UNL    C14   18  -0.398   0.183   0.090
    1UNL    C15   19  -0.519   0.123   0.095
    1UNL    C16   20  -0.520  -0.015   0.055
    1UNL    C17   21  -0.413  -0.092   0.015
    1UNL    C18   22  -0.289  -0.027   0.012
    1UNL     H1   23   0.529  -0.137  -0.076
    1UNL     H2   24   0.578   0.260  -0.040
    1UNL     H3   25   0.348   0.298   0.010
    1UNL     H4   26   0.139   0.212   0.049
    1UNL     H5   27   0.074  -0.307  -0.083
    1UNL     H6   28   0.011  -0.267   0.080
    1UNL     H7   29  -0.174  -0.279  -0.069
    1UNL     H8   30  -0.094  -0.168  -0.186
    1UNL     H9   31  -0.094   0.221   0.094
    1UNL    H10   32  -0.394   0.292   0.090
    1UNL    H11   33  -0.610   0.175   0.134
    1UNL    H12   34  -0.619  -0.068   0.078
    1UNL    H13   35  -0.420  -0.190  -0.021
   0.00000   0.00000   0.00000   0.00000   0.00000   0.00000   0.00000   0.00000   0.00000
Generated with MDTraj, t= 25.0
 35
    1UNL     O1    1   0.303  -0.254  -0.072
    1UNL     C1    2   0.257  -0.145  -0.051
    1UNL     C2    3   0.346  -0.026  -0.049
    1UNL     C3    4   0.486  -0.042  -0.065
    1UNL     N1    5   0.576   0.056  -0.051
    1UNL     C4    6   0.524   0.175  -0.019
    1UNL     C5    7   0.387   0.203  -0.009
    1UNL     C6    8   0.294   0.103  -0.025
    1UNL     C7    9   0.153   0.118  -0.011
    1UNL     C8   10   0.069   0.013  -0.012
    1UNL     N2   11   0.120  -0.117  -0.033
    1UNL     C9   12   0.041  -0.239  -0.042
    1UNL    C10   13  -0.111  -0.211  -0.049
    1UNL    C11   14  -0.153  -0.076  -0.002
    1UNL    C12   15  -0.070   0.027   0.013
    1UNL     N3   16  -0.141   0.134   0.063
    1UNL    C13   17  -0.277   0.101   0.073
    1UNL    C14   18  -0.380   0.180   0.115
    1UNL    C15   19  -0.504   0.118   0.100
    1UNL    C16   20  -0.526  -0.009   0.033
    1UNL    C17   21  -0.413  -0.074  -0.003
    1UNL    C18   22  -0.284  -0.027   0.026
    1UNL     H1   23   0.538  -0.144  -0.084
    1UNL     H2   24   0.598   0.264  -0.013
    1UNL     H3   25   0.352   0.305   0.008
    1UNL     H4   26   0.099   0.212  -0.009
    1UNL     H5   27   0.066  -0.294  -0.128
    1UNL     H6   28   0.073  -0.299   0.047
    1UNL     H7   29  -0.160  -0.283   0.014
    1UNL     H8   30  -0.144  -0.231  -0.154
    1UNL     H9   31  -0.106   0.220   0.098
    1UNL    H10   32  -0.353   0.279   0.140
    1UNL    H11   33  -0.585   0.171   0.141
    1UNL    H12   34  -0.625  -0.051   0.020
    1UNL    H13   35  -0.424  -0.172  -0.052
   0.00000   0.00000   0.00000   0.00000   0.00000   0.00000   0.00000   0.00000   0.00000
Generated with MDTraj, t= 26.0
 35
    1UNL     O1    1   0.298  -0.250  -0.086
    1UNL     C1    2   0.262  -0.142  -0.050
    1UNL     C2    3   0.348  -0.030  -0.037
    1UNL     C3    4   0.483  -0.045  -0.056
    1UNL     N1    5   0.572   0.057  -0.047
    1UNL     C4    6   0.520   0.179  -0.034
    1UNL     C5    7   0.386   0.208  -0.006
    1UNL     C6    8   0.299   0.097  -0.008
    1UNL     C7    9   0.158   0.120   0.001
    1UNL     C8   10   0.074   0.015  -0.011
    1UNL     N2   11   0.126  -0.116  -0.028
    1UNL     C9   12   0.041  -0.237  -0.045
    1UNL    C10   13  -0.113  -0.216  -0.069
    1UNL    C11   14  -0.160  -0.081  -0.012
    1UNL    C12   15  -0.067   0.023   0.017
    1UNL     N3   16  -0.136   0.135   0.053
    1UNL    C13   17  -0.269   0.103   0.066
    1UNL    C14   18  -0.382   0.182   0.099
    1UNL    C15   19  -0.509   0.124   0.096
    1UNL    C16   20  -0.527  -0.011   0.061
    1UNL    C17   21  -0.417  -0.082   0.014
    1UNL    C18   22  -0.288  -0.031   0.023
    1UNL     H1   23   0.515  -0.141  -0.072
    1UNL     H2   24   0.589   0.252  -0.044
    1UNL     H3   25   0.362   0.311  -0.002
    1UNL     H4   26   0.120   0.223   0.001
    1UNL     H5   27   0.096  -0.290  -0.118
    1UNL     H6   28   0.053  -0.291   0.052
    1UNL     H7   29  -0.172  -0.297  -0.029
    1UNL     H8   30  -0.141  -0.217  -0.179
    1UNL     H9   31  -0.105   0.226   0.072
    1UNL    H10   32  -0.349   0.282   0.132
    1UNL    H11   33  -0.586   0.203   0.099
    1UNL    H12   34  -0.624  -0.048   0.055
    1UNL    H13   35  -0.425  -0.186  -0.007
   0.00000   0.00000   0.00000   0.00000   0.00000   0.00000   0.00000   0.00000   0.00000
Generated with MDTraj, t= 27.0
 35
    1UNL     O1    1   0.292  -0.260  -0.076
    1UNL     C1    2   0.262  -0.145  -0.057
    1UNL     C2    3   0.347  -0.029  -0.052
    1UNL     C3    4   0.488  -0.041  -0.071
    1UNL     N1    5   0.574   0.059  -0.057
    1UNL     C4    6   0.526   0.174  -0.019
    1UNL     C5    7   0.392   0.201  -0.004
    1UNL     C6    8   0.301   0.097  -0.012
    1UNL     C7    9   0.167   0.112   0.020
    1UNL     C8   10   0.078   0.013  -0.004
    1UNL     N2   11   0.125  -0.113  -0.039
    1UNL     C9   12   0.036  -0.234  -0.031
    1UNL    C10   13  -0.107  -0.210  -0.067
    1UNL    C11   14  -0.157  -0.069  -0.019
    1UNL    C12   15  -0.074   0.039   0.012
    1UNL     N3   16  -0.139   0.146   0.069
    1UNL    C13   17  -0.276   0.113   0.046
    1UNL    C14   18  -0.395   0.186   0.086
    1UNL    C15   19  -0.514   0.121   0.101
    1UNL    C16   20  -0.519  -0.023   0.067
    1UNL    C17   21  -0.413  -0.102   0.020
    1UNL    C18   22  -0.290  -0.028   0.009
    1UNL     H1   23   0.528  -0.146  -0.088
    1UNL     H2   24   0.606   0.253   0.009
    1UNL     H3   25   0.349   0.297   0.036
    1UNL     H4   26   0.125   0.203   0.047
    1UNL     H5   27   0.076  -0.313  -0.088
    1UNL     H6   28   0.046  -0.258   0.079
    1UNL     H7   29  -0.171  -0.283  -0.023
    1UNL     H8   30  -0.124  -0.224  -0.179
    1UNL     H9   31  -0.109   0.240   0.071
    1UNL    H10   32  -0.376   0.283   0.124
    1UNL    H11   33  -0.598   0.181   0.129
    1UNL    H12   34  -0.627  -0.064   0.080
    1UNL    H13   35  -0.424  -0.209   0.010
   0.00000   0.00000   0.00000   0.00000   0.00000   0.00000   0.00000   0.00000   0.00000
Generated with MDTraj, t= 28.0
 35
    1UNL     O1    1   0.291  -0.254  -0.086
    1UNL     C1    2   0.265  -0.139  -0.057
    1UNL     C2    3   0.351  -0.028  -0.048
    1UNL     C3    4   0.494  -0.044  -0.072
    1UNL     N1    5   0.579   0.054  -0.057
    1UNL     C4    6   0.522   0.172  -0.021
    1UNL     C5    7   0.392   0.201  -0.004
    1UNL     C6    8   0.304   0.097  -0.014
    1UNL     C7    9   0.161   0.120   0.006
    1UNL     C8   10   0.071   0.018  -0.003
    1UNL     N2   11   0.126  -0.114  -0.032
    1UNL     C9   12   0.040  -0.232  -0.024
    1UNL    C10   13  -0.108  -0.215  -0.048
    1UNL    C11   14  -0.158  -0.072  -0.016
    1UNL    C12   15  -0.071   0.030   0.006
    1UNL     N3   16  -0.147   0.139   0.055
    1UNL    C13   17  -0.275   0.105   0.067
    1UNL    C14   18  -0.388   0.173   0.112
    1UNL    C15   19  -0.511   0.116   0.091
    1UNL    C16   20  -0.532  -0.017   0.044
    1UNL    C17   21  -0.414  -0.082   0.008
    1UNL    C18   22  -0.287  -0.023   0.018
    1UNL     H1   23   0.530  -0.139  -0.088
    1UNL     H2   24   0.591   0.242   0.004
    1UNL     H3   25   0.363   0.296   0.028
    1UNL     H4   26   0.117   0.222   0.016
    1UNL     H5   27   0.083  -0.308  -0.082
    1UNL     H6   28   0.041  -0.254   0.089
    1UNL     H7   29  -0.161  -0.277   0.021
    1UNL     H8   30  -0.143  -0.250  -0.151
    1UNL     H9   31  -0.113   0.216   0.110
    1UNL    H10   32  -0.379   0.279   0.137
    1UNL    H11   33  -0.596   0.173   0.122
    1UNL    H12   34  -0.626  -0.057   0.039
    1UNL    H13   35  -0.431  -0.179  -0.041
   0.00000   0.00000   0.00000   0.00000   0.00000   0.00000   0.00000   0.00000   0.00000
Generated with MDTraj, t= 29.0
 35
    1UNL     O1    1   0.299  -0.254  -0.092
    1UNL     C1    2   0.265  -0.144  -0.046
    1UNL     C2    3   0.346  -0.028  -0.042
    1UNL     C3    4   0.484  -0.042  -0.064
    1UNL     N1    5   0.568   0.059  -0.050
    1UNL     C4    6   0.517   0.179  -0.039
    1UNL     C5    7   0.381   0.208  -0.017
    1UNL     C6    8   0.291   0.103  -0.015
    1UNL     C7    9   0.153   0.114   0.002
    1UNL     C8   10   0.076   0.006   0.009
    1UNL     N2   11   0.126  -0.122  -0.011
    1UNL     C9   12   0.040  -0.240  -0.039
    1UNL    C10   13  -0.107  -0.205  -0.075
    1UNL    C11   14  -0.150  -0.079  -0.008
    1UNL    C12   15  -0.066   0.025   0.030
    1UNL     N3   16  -0.138   0.134   0.071
    1UNL    C13   17  -0.273   0.095   0.071
    1UNL    C14   18  -0.382   0.179   0.105
    1UNL    C15   19  -0.503   0.131   0.076
    1UNL    C16   20  -0.524  -0.001   0.036
    1UNL    C17   21  -0.415  -0.085   0.020
    1UNL    C18   22  -0.284  -0.032   0.023
    1UNL     H1   23   0.526  -0.149  -0.075
    1UNL     H2   24   0.596   0.262  -0.043
    1UNL     H3   25   0.338   0.310  -0.014
    1UNL     H4   26   0.107   0.207   0.018
    1UNL     H5   27   0.083  -0.284  -0.125
    1UNL     H6   28   0.044  -0.309   0.051
    1UNL     H7   29  -0.176  -0.286  -0.052
    1UNL     H8   30  -0.120  -0.190  -0.186
    1UNL     H9   31  -0.106   0.228   0.099
    1UNL    H10   32  -0.361   0.283   0.125
    1UNL    H11   33  -0.591   0.193   0.093
    1UNL    H12   34  -0.628  -0.040   0.039
    1UNL    H13   35  -0.433  -0.181  -0.013
   0.00000   0.00000   0.00000   0.00000   0.00000   0.00000   0.00000   0.00000   0.00000
Generated with MDTraj, t= 30.0
 35
    1UNL     O1    1   0.307  -0.257  -0.057
    1UNL     C1    2   0.261  -0.142  -0.048
    1UNL     C2    3   0.345  -0.028  -0.053
    1UNL     C3    4   0.479  -0.042  -0.082
    1UNL     N1    5   0.569   0.063  -0.076
    1UNL     C4    6   0.520   0.178  -0.037
    1UNL     C5    7   0.386   0.205  -0.004
    1UNL     C6    8   0.299   0.098  -0.014
    1UNL     C7    9   0.159   0.111   0.024
    1UNL     C8   10   0.072   0.009   0.007
    1UNL     N2   11   0.123  -0.116  -0.037
    1UNL     C9   12   0.046  -0.238  -0.038
    1UNL    C10   13  -0.109  -0.213  -0.052
    1UNL    C11   14  -0.161  -0.074  -0.012
    1UNL    C12   15  -0.069   0.022   0.023
    1UNL     N3   16  -0.130   0.130   0.085
    1UNL    C13   17  -0.270   0.107   0.070
    1UNL    C14   18  -0.391   0.176   0.108
    1UNL    C15   19  -0.516   0.124   0.087
    1UNL    C16   20  -0.517   0.002   0.026
    1UNL    C17   21  -0.417  -0.080  -0.006
    1UNL    C18   22  -0.292  -0.028   0.010
    1UNL     H1   23   0.517  -0.138  -0.087
    1UNL     H2   24   0.581   0.262  -0.035
    1UNL     H3   25   0.363   0.307   0.014
    1UNL     H4   26   0.128   0.201   0.072
    1UNL     H5   27   0.084  -0.290  -0.124
    1UNL     H6   28   0.080  -0.288   0.060
    1UNL     H7   29  -0.172  -0.289  -0.007
    1UNL     H8   30  -0.131  -0.225  -0.161
    1UNL     H9   31  -0.078   0.222   0.087
    1UNL    H10   32  -0.371   0.269   0.157
    1UNL    H11   33  -0.601   0.176   0.124
    1UNL    H12   34  -0.621  -0.040   0.013
    1UNL    H13   35  -0.437  -0.191  -0.029
   0.00000   0.00000   0.00000   0.00000   0.00000   0.00000   0.00000   0.00000   0.00000
Generated with MDTraj, t= 31.0
 35
    1UNL     O1    1   0.302  -0.254  -0.092
    1UNL     C1    2   0.256  -0.145  -0.056
    1UNL     C2    3   0.347  -0.036  -0.040
    1UNL     C3    4   0.485  -0.045  -0.076
    1UNL     N1    5   0.566   0.059  -0.081
    1UNL     C4    6   0.520   0.179  -0.045
    1UNL     C5    7   0.389   0.197  -0.001
    1UNL     C6    8   0.300   0.094  -0.006
    1UNL     C7    9   0.163   0.111   0.027
    1UNL     C8   10   0.075   0.010   0.024
    1UNL     N2   11   0.123  -0.115  -0.023
    1UNL     C9   12   0.036  -0.228  -0.001
    1UNL    C10   13  -0.093  -0.197  -0.069
    1UNL    C11   14  -0.150  -0.071  -0.020
    1UNL    C12   15  -0.069   0.029   0.025
    1UNL     N3   16  -0.142   0.134   0.069
    1UNL    C13   17  -0.279   0.102   0.070
    1UNL    C14   18  -0.395   0.180   0.096
    1UNL    C15   19  -0.511   0.117   0.084
    1UNL    C16   20  -0.523  -0.014   0.045
    1UNL    C17   21  -0.415  -0.080  -0.006
    1UNL    C18   22  -0.285  -0.025   0.011
    1UNL     H1   23   0.536  -0.144  -0.085
    1UNL     H2   24   0.591   0.266  -0.064
    1UNL     H3   25   0.345   0.293   0.029
    1UNL     H4   26   0.128   0.210   0.061
    1UNL     H5   27   0.092  -0.307  -0.049
    1UNL     H6   28   0.021  -0.253   0.111
    1UNL     H7   29  -0.161  -0.283  -0.064
    1UNL     H8   30  -0.082  -0.189  -0.178
    1UNL     H9   31  -0.110   0.210   0.137
    1UNL    H10   32  -0.391   0.281   0.135
    1UNL    H11   33  -0.601   0.178   0.090
    1UNL    H12   34  -0.615  -0.052   0.030
    1UNL    H13   35  -0.421  -0.176  -0.041
   0.00000   0.00000   0.00000   0.00000   0.00000   0.00000   0.00000   0.00000   0.00000
Generated with MDTraj, t= 32.0
 35
    1UNL     O1    1   0.301  -0.249  -0.091
    1UNL     C1    2   0.260  -0.139  -0.053
    1UNL     C2    3   0.342  -0.026  -0.045
    1UNL     C3    4   0.482  -0.045  -0.078
    1UNL     N1    5   0.572   0.050  -0.070
    1UNL     C4    6   0.522   0.167  -0.035
    1UNL     C5    7   0.395   0.193  -0.001
    1UNL     C6    8   0.298   0.099  -0.013
    1UNL     C7    9   0.157   0.123   0.006
    1UNL     C8   10   0.075   0.018   0.006
    1UNL     N2   11   0.130  -0.115  -0.018
    1UNL     C9   12   0.041  -0.228  -0.032
    1UNL    C10   13  -0.105  -0.199  -0.045
    1UNL    C11   14  -0.152  -0.072   0.003
    1UNL    C12   15  -0.066   0.029   0.031
    1UNL     N3   16  -0.145   0.135   0.074
    1UNL    C13   17  -0.278   0.104   0.069
    1UNL    C14   18  -0.391   0.173   0.096
    1UNL    C15   19  -0.512   0.112   0.082
    1UNL    C16   20  -0.524  -0.013   0.029
    1UNL    C17   21  -0.413  -0.083  -0.001
    1UNL    C18   22  -0.287  -0.026   0.026
    1UNL     H1   23   0.503  -0.151  -0.091
    1UNL     H2   24   0.590   0.247  -0.037
    1UNL     H3   25   0.368   0.290   0.034
    1UNL     H4   26   0.126   0.218   0.038
    1UNL     H5   27   0.072  -0.283  -0.119
    1UNL     H6   28   0.063  -0.297   0.057
    1UNL     H7   29  -0.165  -0.278   0.005
    1UNL     H8   30  -0.135  -0.217  -0.148
    1UNL     H9   31  -0.116   0.238   0.084
    1UNL    H10   32  -0.385   0.271   0.138
    1UNL    H11   33  -0.602   0.163   0.099
    1UNL    H12   34  -0.630  -0.047   0.002
    1UNL    H13   35  -0.421  -0.179  -0.053
   0.00000   0.00000   0.00000   0.00000   0.00000   0.00000   0.00000   0.00000   0.00000
Generated with MDTraj, t= 33.0
 35
    1UNL     O1    1   0.309  -0.254  -0.082
    1UNL     C1    2   0.264  -0.140  -0.057
    1UNL     C2    3   0.344  -0.026  -0.050
    1UNL     C3    4   0.483  -0.037  -0.071
    1UNL     N1    5   0.565   0.063  -0.058
    1UNL     C4    6   0.513   0.178  -0.023
    1UNL     C5    7   0.376   0.202   0.000
    1UNL     C6    8   0.292   0.097  -0.010
    1UNL     C7    9   0.154   0.114   0.004
    1UNL     C8   10   0.077   0.004  -0.009
    1UNL     N2   11   0.126  -0.119  -0.036
    1UNL     C9   12   0.044  -0.239  -0.036
    1UNL    C10   13  -0.108  -0.215  -0.060
    1UNL    C11   14  -0.154  -0.085   0.004
    1UNL    C12   15  -0.063   0.018   0.019
    1UNL     N3   16  -0.130   0.130   0.070
    1UNL    C13   17  -0.270   0.103   0.066
    1UNL    C14   18  -0.381   0.191   0.092
    1UNL    C15   19  -0.507   0.141   0.081
    1UNL    C16   20  -0.520   0.003   0.046
    1UNL    C17   21  -0.422  -0.090   0.017
    1UNL    C18   22  -0.289  -0.038   0.026
    1UNL     H1   23   0.512  -0.139  -0.095
    1UNL     H2   24   0.592   0.253  -0.001
    1UNL     H3   25   0.337   0.300   0.021
    1UNL     H4   26   0.113   0.214   0.030
    1UNL     H5   27   0.080  -0.308  -0.112
    1UNL     H6   28   0.049  -0.288   0.067
    1UNL     H7   29  -0.170  -0.303  -0.028
    1UNL     H8   30  -0.125  -0.207  -0.166
    1UNL     H9   31  -0.087   0.227   0.065
    1UNL    H10   32  -0.372   0.296   0.120
    1UNL    H11   33  -0.589   0.203   0.123
    1UNL    H12   34  -0.617  -0.037   0.051
    1UNL    H13   35  -0.442  -0.194  -0.021
   0.00000   0.00000   0.00000   0.00000   0.00000   0.00000   0.00000   0.00000   0.00000
Generated with MDTraj, t= 34.0
 35
    1UNL     O1    1   0.299  -0.259  -0.088
    1UNL     C1    2   0.261  -0.144  -0.057
    1UNL     C2    3   0.349  -0.034  -0.036
    1UNL     C3    4   0.488  -0.038  -0.056
    1UNL     N1    5   0.573   0.064  -0.053
    1UNL     C4    6   0.521   0.182  -0.033
    1UNL     C5    7   0.384   0.206  -0.012
    1UNL     C6    8   0.300   0.095  -0.004
    1UNL     C7    9   0.159   0.110   0.020
    1UNL     C8   10   0.072   0.008   0.001
    1UNL     N2   11   0.122  -0.117  -0.043
    1UNL     C9   12   0.045  -0.243  -0.034
    1UNL    C10   13  -0.107  -0.216  -0.061
    1UNL    C11   14  -0.161  -0.078  -0.016
    1UNL    C12   15  -0.071   0.027   0.016
    1UNL     N3   16  -0.139   0.143   0.045
    1UNL    C13   17  -0.274   0.109   0.057
    1UNL    C14   18  -0.382   0.185   0.098
    1UNL    C15   19  -0.507   0.122   0.100
    1UNL    C16   20  -0.526  -0.012   0.063
    1UNL    C17   21  -0.419  -0.083   0.014
    1UNL    C18   22  -0.290  -0.021   0.010
    1UNL     H1   23   0.533  -0.134  -0.085
    1UNL     H2   24   0.582   0.271  -0.015
    1UNL     H3   25   0.349   0.310  -0.003
    1UNL     H4   26   0.128   0.210   0.034
    1UNL     H5   27   0.091  -0.322  -0.096
    1UNL     H6   28   0.060  -0.272   0.075
    1UNL     H7   29  -0.167  -0.291  -0.002
    1UNL     H8   30  -0.135  -0.232  -0.163
    1UNL     H9   31  -0.095   0.209   0.113
    1UNL    H10   32  -0.361   0.290   0.110
    1UNL    H11   33  -0.592   0.168   0.140
    1UNL    H12   34  -0.618  -0.065   0.079
    1UNL    H13   35  -0.428  -0.177  -0.020
   0.00000   0.00000   0.00000   0.00000   0.00000   0.00000   0.00000   0.00000   0.00000
Generated with MDTraj, t= 35.0
 35
    1UNL     O1    1   0.288  -0.258  -0.066
    1UNL     C1    2   0.258  -0.140  -0.049
    1UNL     C2    3   0.354  -0.031  -0.054
    1UNL     C3    4   0.489  -0.049  -0.078
    1UNL     N1    5   0.577   0.046  -0.054
    1UNL     C4    6   0.534   0.166  -0.011
    1UNL     C5    7   0.397   0.201  -0.008
    1UNL     C6    8   0.306   0.101  -0.026
    1UNL     C7    9   0.164   0.128  -0.006
    1UNL     C8   10   0.072   0.029  -0.016
    1UNL     N2   11   0.124  -0.105  -0.028
    1UNL     C9   12   0.034  -0.227  -0.025
    1UNL    C10   13  -0.108  -0.206  -0.072
    1UNL    C11   14  -0.154  -0.068  -0.019
    1UNL    C12   15  -0.072   0.036   0.009
    1UNL     N3   16  -0.148   0.142   0.064
    1UNL    C13   17  -0.280   0.107   0.064
    1UNL    C14   18  -0.392   0.176   0.107
    1UNL    C15   19  -0.513   0.106   0.099
    1UNL    C16   20  -0.530  -0.029   0.044
    1UNL    C17   21  -0.411  -0.090   0.024
    1UNL    C18   22  -0.286  -0.027   0.023
    1UNL     H1   23   0.535  -0.139  -0.109
    1UNL     H2   24   0.603   0.247   0.017
    1UNL     H3   25   0.372   0.297   0.027
    1UNL     H4   26   0.123   0.227   0.010
    1UNL     H5   27   0.097  -0.295  -0.086
    1UNL     H6   28   0.046  -0.272   0.079
    1UNL     H7   29  -0.181  -0.279  -0.030
    1UNL     H8   30  -0.117  -0.209  -0.178
    1UNL     H9   31  -0.114   0.238   0.074
    1UNL    H10   32  -0.391   0.272   0.156
    1UNL    H11   33  -0.602   0.166   0.130
    1UNL    H12   34  -0.631  -0.069   0.019
    1UNL    H13   35  -0.403  -0.202   0.004
   0.00000   0.00000   0.00000   0.00000   0.00000   0.00000   0.00000   0.00000   0.00000
Generated with MDTraj, t= 36.0
 35
    1UNL     O1    1   0.288  -0.256  -0.083
    1UNL     C1    2   0.260  -0.140  -0.045
    1UNL     C2    3   0.354  -0.028  -0.029
    1UNL     C3    4   0.492  -0.044  -0.048
    1UNL     N1    5   0.577   0.053  -0.048
    1UNL     C4    6   0.521   0.174  -0.040
    1UNL     C5    7   0.387   0.207  -0.027
    1UNL     C6    8   0.300   0.100  -0.013
    1UNL     C7    9   0.161   0.121   0.004
    1UNL     C8   10   0.078   0.017   0.003
    1UNL     N2   11   0.124  -0.117  -0.015
    1UNL     C9   12   0.033  -0.236  -0.036
    1UNL    C10   13  -0.112  -0.203  -0.070
    1UNL    C11   14  -0.161  -0.069  -0.026
    1UNL    C12   15  -0.073   0.038   0.003
    1UNL     N3   16  -0.139   0.138   0.059
    1UNL    C13   17  -0.271   0.101   0.064
    1UNL    C14   18  -0.380   0.169   0.116
    1UNL    C15   19  -0.509   0.122   0.102
    1UNL    C16   20  -0.520  -0.015   0.057
    1UNL    C17   21  -0.419  -0.096   0.003
    1UNL    C18   22  -0.290  -0.029   0.005
    1UNL     H1   23   0.529  -0.150  -0.065
    1UNL     H2   24   0.588   0.259  -0.064
    1UNL     H3   25   0.357   0.313  -0.019
    1UNL     H4   26   0.135   0.225  -0.013
    1UNL     H5   27   0.072  -0.301  -0.117
    1UNL     H6   28   0.047  -0.298   0.057
    1UNL     H7   29  -0.180  -0.285  -0.032
    1UNL     H8   30  -0.124  -0.194  -0.175
    1UNL     H9   31  -0.105   0.226   0.091
    1UNL    H10   32  -0.351   0.255   0.177
    1UNL    H11   33  -0.592   0.185   0.115
    1UNL    H12   34  -0.614  -0.059   0.050
    1UNL    H13   35  -0.427  -0.201  -0.024
   0.00000   0.00000   0.00000   0.00000   0.00000   0.00000   0.00000   0.00000   0.00000
Generated with MDTraj, t= 37.0
 35
    1UNL     O1    1   0.302  -0.261  -0.043
    1UNL     C1    2   0.262  -0.145  -0.049
    1UNL     C2    3   0.353  -0.026  -0.054
    1UNL     C3    4   0.496  -0.035  -0.068
    1UNL     N1    5   0.574   0.064  -0.054
    1UNL     C4    6   0.515   0.183  -0.026
    1UNL     C5    7   0.382   0.205  -0.010
    1UNL     C6    8   0.294   0.102  -0.029
    1UNL     C7    9   0.152   0.115   0.006
    1UNL     C8   10   0.077   0.007  -0.005
    1UNL     N2   11   0.123  -0.119  -0.045
    1UNL     C9   12   0.033  -0.236  -0.041
    1UNL    C10   13  -0.115  -0.210  -0.072
    1UNL    C11   14  -0.159  -0.077  -0.022
    1UNL    C12   15  -0.066   0.019   0.015
    1UNL     N3   16  -0.133   0.130   0.068
    1UNL    C13   17  -0.267   0.101   0.071
    1UNL    C14   18  -0.377   0.183   0.110
    1UNL    C15   19  -0.508   0.127   0.100
    1UNL    C16   20  -0.526  -0.002   0.045
    1UNL    C17   21  -0.419  -0.084   0.006
    1UNL    C18   22  -0.288  -0.031   0.019
    1UNL     H1   23   0.522  -0.131  -0.095
    1UNL     H2   24   0.584   0.262  -0.032
    1UNL     H3   25   0.347   0.302   0.010
    1UNL     H4   26   0.105   0.209   0.026
    1UNL     H5   27   0.071  -0.307  -0.116
    1UNL     H6   28   0.035  -0.295   0.055
    1UNL     H7   29  -0.178  -0.284  -0.018
    1UNL     H8   30  -0.123  -0.223  -0.178
    1UNL     H9   31  -0.087   0.192   0.127
    1UNL    H10   32  -0.364   0.281   0.148
    1UNL    H11   33  -0.591   0.192   0.134
    1UNL    H12   34  -0.633  -0.033   0.033
    1UNL    H13   35  -0.428  -0.175  -0.040
   0.00000   0.00000   0.00000   0.00000   0.00000   0.00000   0.00000   0.00000   0.00000
Generated with MDTraj, t= 38.0
 35
    1UNL     O1    1   0.304  -0.252  -0.086
    1UNL     C1    2   0.255  -0.144  -0.050
    1UNL     C2    3   0.349  -0.030  -0.042
    1UNL     C3    4   0.488  -0.044  -0.052
    1UNL     N1    5   0.569   0.057  -0.062
    1UNL     C4    6   0.526   0.180  -0.039
    1UNL     C5    7   0.392   0.203  -0.011
    1UNL     C6    8   0.300   0.097  -0.020
    1UNL     C7    9   0.163   0.116   0.015
    1UNL     C8   10   0.074   0.015  -0.000
    1UNL     N2   11   0.124  -0.119  -0.028
    1UNL     C9   12   0.040  -0.242  -0.029
    1UNL    C10   13  -0.110  -0.205  -0.070
    1UNL    C11   14  -0.155  -0.074  -0.007
    1UNL    C12   15  -0.072   0.027   0.023
    1UNL     N3   16  -0.145   0.136   0.066
    1UNL    C13   17  -0.278   0.106   0.069
    1UNL    C14   18  -0.387   0.177   0.102
    1UNL    C15   19  -0.510   0.121   0.087
    1UNL    C16   20  -0.528  -0.012   0.036
    1UNL    C17   21  -0.412  -0.080   0.012
    1UNL    C18   22  -0.286  -0.023   0.024
    1UNL     H1   23   0.528  -0.148  -0.082
    1UNL     H2   24   0.595   0.269  -0.045
    1UNL     H3   25   0.361   0.309  -0.000
    1UNL     H4   26   0.138   0.213   0.059
    1UNL     H5   27   0.071  -0.322  -0.099
    1UNL     H6   28   0.044  -0.297   0.067
    1UNL     H7   29  -0.170  -0.293  -0.037
    1UNL     H8   30  -0.118  -0.192  -0.175
    1UNL     H9   31  -0.116   0.226   0.094
    1UNL    H10   32  -0.384   0.284   0.129
    1UNL    H11   33  -0.596   0.166   0.129
    1UNL    H12   34  -0.616  -0.069   0.034
    1UNL    H13   35  -0.428  -0.186  -0.033
   0.00000   0.00000   0.00000   0.00000   0.00000   0.00000   0.00000   0.00000   0.00000
Generated with MDTraj, t= 39.0
 35
    1UNL     O1    1   0.298  -0.243  -0.098
    1UNL     C1    2   0.252  -0.137  -0.061
    1UNL     C2    3   0.344  -0.024  -0.049
    1UNL     C3    4   0.472  -0.040  -0.074
    1UNL     N1    5   0.569   0.047  -0.069
    1UNL     C4    6   0.532   0.167  -0.033
    1UNL     C5    7   0.398   0.198   0.006
    1UNL     C6    8   0.302   0.101  -0.005
    1UNL     C7    9   0.157   0.120   0.007
    1UNL     C8   10   0.076   0.011   0.010
    1UNL     N2   11   0.124  -0.115  -0.020
    1UNL     C9   12   0.043  -0.233  -0.013
    1UNL    C10   13  -0.109  -0.212  -0.046
    1UNL    C11   14  -0.154  -0.076   0.002
    1UNL    C12   15  -0.064   0.027   0.024
    1UNL     N3   16  -0.134   0.142   0.065
    1UNL    C13   17  -0.273   0.110   0.066
    1UNL    C14   18  -0.395   0.182   0.102
    1UNL    C15   19  -0.512   0.113   0.080
    1UNL    C16   20  -0.524  -0.017   0.035
    1UNL    C17   21  -0.414  -0.092  -0.004
    1UNL    C18   22  -0.289  -0.025   0.014
    1UNL     H1   23   0.504  -0.131  -0.107
    1UNL     H2   24   0.597   0.249  -0.030
    1UNL     H3   25   0.379   0.297   0.036
    1UNL     H4   26   0.122   0.220   0.014
    1UNL     H5   27   0.098  -0.305  -0.080
    1UNL     H6   28   0.054  -0.285   0.083
    1UNL     H7   29  -0.180  -0.286  -0.005
    1UNL     H8   30  -0.112  -0.217  -0.153
    1UNL     H9   31  -0.090   0.232   0.060
    1UNL    H10   32  -0.388   0.282   0.135
    1UNL    H11   33  -0.606   0.157   0.112
    1UNL    H12   34  -0.625  -0.064   0.041
    1UNL    H13   35  -0.418  -0.190  -0.037
   0.00000   0.00000   0.00000   0.00000   0.00000   0.00000   0.00000   0.00000   0.00000
Generated with MDTraj, t= 40.0
 35
    1UNL     O1    1   0.310  -0.247  -0.089
    1UNL     C1    2   0.258  -0.139  -0.061
    1UNL     C2    3   0.346  -0.024  -0.050
    1UNL     C3    4   0.479  -0.032  -0.086
    1UNL     N1    5   0.567   0.059  -0.076
    1UNL     C4    6   0.522   0.172  -0.027
    1UNL     C5    7   0.390   0.197   0.010
    1UNL     C6    8   0.297   0.095  -0.005
    1UNL     C7    9   0.160   0.113   0.014
    1UNL     C8   10   0.078   0.006   0.006
    1UNL     N2   11   0.124  -0.119  -0.029
    1UNL     C9   12   0.036  -0.239  -0.023
    1UNL    C10   13  -0.110  -0.209  -0.052
    1UNL    C11   14  -0.152  -0.078  -0.001
    1UNL    C12   15  -0.063   0.023   0.033
    1UNL     N3   16  -0.140   0.132   0.073
    1UNL    C13   17  -0.276   0.106   0.059
    1UNL    C14   18  -0.394   0.186   0.079
    1UNL    C15   19  -0.513   0.128   0.080
    1UNL    C16   20  -0.518  -0.005   0.042
    1UNL    C17   21  -0.415  -0.087   0.012
    1UNL    C18   22  -0.289  -0.034   0.024
    1UNL     H1   23   0.520  -0.136  -0.116
    1UNL     H2   24   0.592   0.256  -0.001
    1UNL     H3   25   0.370   0.292   0.064
    1UNL     H4   26   0.138   0.214   0.048
    1UNL     H5   27   0.075  -0.334  -0.071
    1UNL     H6   28   0.053  -0.269   0.081
    1UNL     H7   29  -0.166  -0.289  -0.003
    1UNL     H8   30  -0.144  -0.214  -0.156
    1UNL     H9   31  -0.095   0.221   0.095
    1UNL    H10   32  -0.381   0.294   0.105
    1UNL    H11   33  -0.601   0.192   0.089
    1UNL    H12   34  -0.615  -0.038   0.020
    1UNL    H13   35  -0.434  -0.192  -0.009
   0.00000   0.00000   0.00000   0.00000   0.00000   0.00000   0.00000   0.00000   0.00000
Generated with MDTraj, t= 41.0
 35
    1UNL     O1    1   0.306  -0.252  -0.094
    1UNL     C1    2   0.265  -0.145  -0.051
    1UNL     C2    3   0.353  -0.030  -0.032
    1UNL     C3    4   0.492  -0.036  -0.061
    1UNL     N1    5   0.566   0.065  -0.070
    1UNL     C4    6   0.515   0.185  -0.044
    1UNL     C5    7   0.384   0.201  -0.015
    1UNL     C6    8   0.296   0.092  -0.000
    1UNL     C7    9   0.154   0.107   0.031
    1UNL     C8   10   0.074   0.000   0.007
    1UNL     N2   11   0.127  -0.122  -0.029
    1UNL     C9   12   0.033  -0.232  -0.061
    1UNL    C10   13  -0.113  -0.215  -0.029
    1UNL    C11   14  -0.154  -0.078   0.004
    1UNL    C12   15  -0.068   0.021   0.024
    1UNL     N3   16  -0.139   0.132   0.063
    1UNL    C13   17  -0.273   0.109   0.059
    1UNL    C14   18  -0.383   0.185   0.088
    1UNL    C15   19  -0.501   0.125   0.079
    1UNL    C16   20  -0.526  -0.005   0.041
    1UNL    C17   21  -0.417  -0.077   0.008
    1UNL    C18   22  -0.286  -0.023   0.021
    1UNL     H1   23   0.530  -0.130  -0.067
    1UNL     H2   24   0.580   0.266  -0.026
    1UNL     H3   25   0.350   0.298   0.006
    1UNL     H4   26   0.120   0.195   0.083
    1UNL     H5   27   0.055  -0.248  -0.169
    1UNL     H6   28   0.066  -0.328  -0.019
    1UNL     H7   29  -0.148  -0.274   0.055
    1UNL     H8   30  -0.169  -0.259  -0.113
    1UNL     H9   31  -0.098   0.218   0.108
    1UNL    H10   32  -0.381   0.284   0.126
    1UNL    H11   33  -0.593   0.180   0.078
    1UNL    H12   34  -0.627  -0.050   0.027
    1UNL    H13   35  -0.434  -0.186  -0.017
   0.00000   0.00000   0.00000   0.00000   0.00000   0.00000   0.00000   0.00000   0.00000
Generated with MDTraj, t= 42.0
 35
    1UNL     O1    1   0.294  -0.256  -0.068
    1UNL     C1    2   0.254  -0.141  -0.059
    1UNL     C2    3   0.349  -0.027  -0.053
    1UNL     C3    4   0.486  -0.037  -0.082
    1UNL     N1    5   0.570   0.057  -0.051
    1UNL     C4    6   0.524   0.179  -0.018
    1UNL     C5    7   0.392   0.204   0.004
    1UNL     C6    8   0.304   0.099  -0.009
    1UNL     C7    9   0.162   0.115   0.006
    1UNL     C8   10   0.077   0.010   0.005
    1UNL     N2   11   0.119  -0.113  -0.044
    1UNL     C9   12   0.031  -0.221  -0.090
    1UNL    C10   13  -0.104  -0.224  -0.015
    1UNL    C11   14  -0.156  -0.085   0.014
    1UNL    C12   15  -0.067   0.022   0.020
    1UNL     N3   16  -0.142   0.141   0.048
    1UNL    C13   17  -0.270   0.103   0.066
    1UNL    C14   18  -0.385   0.183   0.093
    1UNL    C15   19  -0.509   0.128   0.068
    1UNL    C16   20  -0.521  -0.005   0.039
    1UNL    C17   21  -0.416  -0.095   0.026
    1UNL    C18   22  -0.287  -0.035   0.042
    1UNL     H1   23   0.531  -0.141  -0.107
    1UNL     H2   24   0.606   0.249   0.005
    1UNL     H3   25   0.358   0.309   0.014
    1UNL     H4   26   0.127   0.216   0.024
    1UNL     H5   27  -0.002  -0.200  -0.195
    1UNL     H6   28   0.089  -0.314  -0.086
    1UNL     H7   29  -0.096  -0.291   0.068
    1UNL     H8   30  -0.179  -0.271  -0.081
    1UNL     H9   31  -0.092   0.236   0.037
    1UNL    H10   32  -0.389   0.291   0.105
    1UNL    H11   33  -0.603   0.182   0.087
    1UNL    H12   34  -0.620  -0.045   0.039
    1UNL    H13   35  -0.425  -0.193   0.005
   0.00000   0.00000   0.00000   0.00000   0.00000   0.00000   0.00000   0.00000   0.00000
Generated with MDTraj, t= 43.0
 35
    1UNL     O1    1   0.280  -0.244  -0.121
    1UNL     C1    2   0.254  -0.136  -0.067
    1UNL     C2    3   0.351  -0.030  -0.037
    1UNL     C3    4   0.487  -0.046  -0.055
    1UNL     N1    5   0.581   0.045  -0.033
    1UNL     C4    6   0.536   0.164  -0.008
    1UNL     C5    7   0.405   0.200   0.006
    1UNL     C6    8   0.304   0.097  -0.007
    1UNL     C7    9   0.164   0.120   0.015
    1UNL     C8   10   0.076   0.020  -0.008
    1UNL     N2   11   0.120  -0.105  -0.041
    1UNL     C9   12   0.031  -0.215  -0.088
    1UNL    C10   13  -0.102  -0.226  -0.004
    1UNL    C11   14  -0.152  -0.079   0.011
    1UNL    C12   15  -0.072   0.037   0.011
    1UNL     N3   16  -0.146   0.152   0.021
    1UNL    C13   17  -0.280   0.112   0.035
    1UNL    C14   18  -0.396   0.181   0.063
    1UNL    C15   19  -0.520   0.118   0.079
    1UNL    C16   20  -0.520  -0.026   0.073
    1UNL    C17   21  -0.409  -0.103   0.063
    1UNL    C18   22  -0.287  -0.035   0.037
    1UNL     H1   23   0.514  -0.141  -0.072
    1UNL     H2   24   0.606   0.247  -0.003
    1UNL     H3   25   0.380   0.302   0.024
    1UNL     H4   26   0.142   0.213   0.066
    1UNL     H5   27   0.011  -0.192  -0.197
    1UNL     H6   28   0.083  -0.311  -0.075
    1UNL     H7   29  -0.079  -0.266   0.092
    1UNL     H8   30  -0.170  -0.302  -0.046
    1UNL     H9   31  -0.115   0.254   0.009
    1UNL    H10   32  -0.403   0.289   0.052
    1UNL    H11   33  -0.609   0.167   0.107
    1UNL    H12   34  -0.606  -0.082   0.107
    1UNL    H13   35  -0.419  -0.216   0.062
   0.00000   0.00000   0.00000   0.00000   0.00000   0.00000   0.00000   0.00000   0.00000
Generated with MDTraj, t= 44.0
 35
    1UNL     O1    1   0.287  -0.246  -0.125
    1UNL     C1    2   0.256  -0.135  -0.089
    1UNL     C2    3   0.355  -0.026  -0.053
    1UNL     C3    4   0.489  -0.041  -0.060
    1UNL     N1    5   0.574   0.048  -0.024
    1UNL     C4    6   0.524   0.159   0.033
    1UNL     C5    7   0.387   0.191   0.036
    1UNL     C6    8   0.298   0.098  -0.011
    1UNL     C7    9   0.154   0.118  -0.000
    1UNL     C8   10   0.068   0.019  -0.035
    1UNL     N2   11   0.121  -0.103  -0.077
    1UNL     C9   12   0.028  -0.230  -0.075
    1UNL    C10   13  -0.091  -0.217   0.020
    1UNL    C11   14  -0.152  -0.078   0.011
    1UNL    C12   15  -0.072   0.032  -0.012
    1UNL     N3   16  -0.151   0.146   0.011
    1UNL    C13   17  -0.278   0.106   0.036
    1UNL    C14   18  -0.390   0.185   0.050
    1UNL    C15   19  -0.508   0.119   0.078
    1UNL    C16   20  -0.515  -0.019   0.100
    1UNL    C17   21  -0.402  -0.092   0.079
    1UNL    C18   22  -0.279  -0.030   0.044
    1UNL     H1   23   0.539  -0.141  -0.097
    1UNL     H2   24   0.597   0.234   0.055
    1UNL     H3   25   0.355   0.285   0.079
    1UNL     H4   26   0.119   0.205   0.049
    1UNL     H5   27  -0.011  -0.232  -0.181
    1UNL     H6   28   0.094  -0.316  -0.053
    1UNL     H7   29  -0.071  -0.241   0.121
    1UNL     H8   30  -0.171  -0.289  -0.005
    1UNL     H9   31  -0.118   0.246   0.014
    1UNL    H10   32  -0.381   0.288   0.027
    1UNL    H11   33  -0.600   0.181   0.076
    1UNL    H12   34  -0.606  -0.068   0.137
    1UNL    H13   35  -0.384  -0.198   0.087
   0.00000   0.00000   0.00000   0.00000   0.00000   0.00000   0.00000   0.00000   0.00000
Generated with MDTraj, t= 45.0
 35
    1UNL     O1    1   0.295  -0.245  -0.124
    1UNL     C1    2   0.256  -0.137  -0.086
    1UNL     C2    3   0.353  -0.023  -0.050
    1UNL     C3    4   0.490  -0.047  -0.051
    1UNL     N1    5   0.570   0.046  -0.010
    1UNL     C4    6   0.520   0.165   0.025
    1UNL     C5    7   0.389   0.200   0.033
    1UNL     C6    8   0.299   0.101  -0.010
    1UNL     C7    9   0.157   0.118  -0.011
    1UNL     C8   10   0.068   0.013  -0.026
    1UNL     N2   11   0.122  -0.108  -0.068
    1UNL     C9   12   0.019  -0.222  -0.088
    1UNL    C10   13  -0.095  -0.218   0.004
    1UNL    C11   14  -0.152  -0.082   0.008
    1UNL    C12   15  -0.071   0.030  -0.008
    1UNL     N3   16  -0.147   0.142   0.000
    1UNL    C13   17  -0.278   0.103   0.030
    1UNL    C14   18  -0.387   0.185   0.050
    1UNL    C15   19  -0.504   0.130   0.095
    1UNL    C16   20  -0.513  -0.016   0.113
    1UNL    C17   21  -0.408  -0.100   0.077
    1UNL    C18   22  -0.282  -0.036   0.045
    1UNL     H1   23   0.530  -0.134  -0.079
    1UNL     H2   24   0.590   0.251   0.046
    1UNL     H3   25   0.363   0.305   0.055
    1UNL     H4   26   0.124   0.222  -0.010
    1UNL     H5   27  -0.019  -0.214  -0.196
    1UNL     H6   28   0.088  -0.306  -0.080
    1UNL     H7   29  -0.070  -0.252   0.101
    1UNL     H8   30  -0.178  -0.287  -0.022
    1UNL     H9   31  -0.115   0.238  -0.023
    1UNL    H10   32  -0.369   0.293   0.039
    1UNL    H11   33  -0.591   0.188   0.094
    1UNL    H12   34  -0.607  -0.056   0.133
    1UNL    H13   35  -0.406  -0.203   0.099
   0.00000   0.00000   0.00000   0.00000   0.00000   0.00000   0.00000   0.00000   0.00000
Generated with MDTraj, t= 46.0
 35
    1UNL     O1    1   0.298  -0.250  -0.102
    1UNL     C1    2   0.256  -0.144  -0.058
    1UNL     C2    3   0.349  -0.027  -0.035
    1UNL     C3    4   0.485  -0.043  -0.033
    1UNL     N1    5   0.576   0.045  -0.022
    1UNL     C4    6   0.530   0.167  -0.007
    1UNL     C5    7   0.398   0.199   0.005
    1UNL     C6    8   0.299   0.100  -0.012
    1UNL     C7    9   0.159   0.122  -0.004
    1UNL     C8   10   0.070   0.019  -0.040
    1UNL     N2   11   0.119  -0.110  -0.048
    1UNL     C9   12   0.028  -0.220  -0.094
    1UNL    C10   13  -0.111  -0.220  -0.026
    1UNL    C11   14  -0.157  -0.074   0.008
    1UNL    C12   15  -0.074   0.034  -0.010
    1UNL     N3   16  -0.142   0.152   0.011
    1UNL    C13   17  -0.276   0.114   0.038
    1UNL    C14   18  -0.394   0.179   0.080
    1UNL    C15   19  -0.514   0.117   0.108
    1UNL    C16   20  -0.512  -0.027   0.091
    1UNL    C17   21  -0.400  -0.100   0.056
    1UNL    C18   22  -0.285  -0.028   0.037
    1UNL     H1   23   0.514  -0.155  -0.048
    1UNL     H2   24   0.602   0.240   0.004
    1UNL     H3   25   0.361   0.294   0.020
    1UNL     H4   26   0.124   0.219   0.023
    1UNL     H5   27   0.026  -0.207  -0.210
    1UNL     H6   28   0.077  -0.314  -0.067
    1UNL     H7   29  -0.103  -0.271   0.067
    1UNL     H8   30  -0.183  -0.284  -0.083
    1UNL     H9   31  -0.106   0.244  -0.004
    1UNL    H10   32  -0.383   0.281   0.098
    1UNL    H11   33  -0.605   0.180   0.126
    1UNL    H12   34  -0.608  -0.082   0.112
    1UNL    H13   35  -0.400  -0.214   0.055
   0.00000   0.00000   0.00000   0.00000   0.00000   0.00000   0.00000   0.00000   0.00000
Generated with MDTraj, t= 47.0
 35
    1UNL     O1    1   0.307  -0.248  -0.043
    1UNL     C1    2   0.253  -0.140  -0.050
    1UNL     C2    3   0.348  -0.028  -0.050
    1UNL     C3    4   0.489  -0.049  -0.051
    1UNL     N1    5   0.574   0.053  -0.037
    1UNL     C4    6   0.528   0.177  -0.011
    1UNL     C5    7   0.396   0.202  -0.010
    1UNL     C6    8   0.299   0.099  -0.024
    1UNL     C7    9   0.156   0.119  -0.007
    1UNL     C8   10   0.072   0.009  -0.019
    1UNL     N2   11   0.116  -0.112  -0.062
    1UNL     C9   12   0.029  -0.224  -0.102
    1UNL    C10   13  -0.109  -0.223  -0.034
    1UNL    C11   14  -0.159  -0.077  -0.008
    1UNL    C12   15  -0.067   0.027   0.005
    1UNL     N3   16  -0.146   0.137   0.044
    1UNL    C13   17  -0.276   0.107   0.058
    1UNL    C14   18  -0.385   0.182   0.107
    1UNL    C15   19  -0.508   0.118   0.107
    1UNL    C16   20  -0.523  -0.014   0.064
    1UNL    C17   21  -0.409  -0.085   0.024
    1UNL    C18   22  -0.285  -0.025   0.026
    1UNL     H1   23   0.523  -0.144  -0.059
    1UNL     H2   24   0.614   0.250   0.004
    1UNL     H3   25   0.363   0.305   0.024
    1UNL     H4   26   0.123   0.223  -0.005
    1UNL     H5   27   0.009  -0.228  -0.217
    1UNL     H6   28   0.086  -0.311  -0.070
    1UNL     H7   29  -0.097  -0.279   0.056
    1UNL     H8   30  -0.188  -0.278  -0.089
    1UNL     H9   31  -0.107   0.226   0.053
    1UNL    H10   32  -0.370   0.290   0.124
    1UNL    H11   33  -0.587   0.168   0.154
    1UNL    H12   34  -0.612  -0.066   0.077
    1UNL    H13   35  -0.423  -0.181  -0.008
   0.00000   0.00000   0.00000   0.00000   0.00000   0.00000   0.00000   0.00000   0.00000
Generated with MDTraj, t= 48.0
 35
    1UNL     O1    1   0.312  -0.248  -0.082
    1UNL     C1    2   0.260  -0.144  -0.046
    1UNL     C2    3   0.350  -0.028  -0.024
    1UNL     C3    4   0.484  -0.041  -0.040
    1UNL     N1    5   0.572   0.055  -0.055
    1UNL     C4    6   0.519   0.176  -0.042
    1UNL     C5    7   0.389   0.208  -0.015
    1UNL     C6    8   0.295   0.101  -0.007
    1UNL     C7    9   0.155   0.111   0.009
    1UNL     C8   10   0.074   0.002   0.002
    1UNL     N2   11   0.123  -0.121  -0.035
    1UNL     C9   12   0.033  -0.232  -0.077
    1UNL    C10   13  -0.116  -0.205  -0.050
    1UNL    C11   14  -0.160  -0.068  -0.015
    1UNL    C12   15  -0.070   0.023   0.018
    1UNL     N3   16  -0.136   0.137   0.052
    1UNL    C13   17  -0.272   0.105   0.059
    1UNL    C14   18  -0.382   0.182   0.099
    1UNL    C15   19  -0.504   0.123   0.092
    1UNL    C16   20  -0.522  -0.016   0.061
    1UNL    C17   21  -0.413  -0.088   0.020
    1UNL    C18   22  -0.289  -0.024   0.018
    1UNL     H1   23   0.528  -0.147  -0.048
    1UNL     H2   24   0.587   0.254  -0.052
    1UNL     H3   25   0.354   0.304  -0.000
    1UNL     H4   26   0.105   0.205   0.004
    1UNL     H5   27   0.048  -0.239  -0.192
    1UNL     H6   28   0.059  -0.326  -0.031
    1UNL     H7   29  -0.152  -0.270   0.029
    1UNL     H8   30  -0.163  -0.243  -0.143
    1UNL     H9   31  -0.091   0.213   0.095
    1UNL    H10   32  -0.377   0.288   0.104
    1UNL    H11   33  -0.598   0.172   0.121
    1UNL    H12   34  -0.623  -0.059   0.083
    1UNL    H13   35  -0.434  -0.195  -0.004
   0.00000   0.00000   0.00000   0.00000   0.00000   0.00000   0.00000   0.00000   0.00000
Generated with MDTraj, t= 49.0
 35
    1UNL     O1    1   0.305  -0.250  -0.088
    1UNL     C1    2   0.262  -0.139  -0.061
    1UNL     C2    3   0.351  -0.022  -0.052
    1UNL     C3    4   0.479  -0.035  -0.080
    1UNL     N1    5   0.571   0.059  -0.067
    1UNL     C4    6   0.523   0.174  -0.016
    1UNL     C5    7   0.392   0.199   0.016
    1UNL     C6    8   0.298   0.098  -0.015
    1UNL     C7    9   0.162   0.113   0.010
    1UNL     C8   10   0.074   0.015  -0.015
    1UNL     N2   11   0.126  -0.116  -0.035
    1UNL     C9   12   0.029  -0.240  -0.026
    1UNL    C10   13  -0.120  -0.216  -0.046
    1UNL    C11   14  -0.154  -0.078   0.002
    1UNL    C12   15  -0.066   0.025   0.015
    1UNL     N3   16  -0.135   0.134   0.062
    1UNL    C13   17  -0.272   0.107   0.062
    1UNL    C14   18  -0.393   0.186   0.095
    1UNL    C15   19  -0.514   0.130   0.080
    1UNL    C16   20  -0.519  -0.007   0.039
    1UNL    C17   21  -0.415  -0.095   0.021
    1UNL    C18   22  -0.285  -0.036   0.028
    1UNL     H1   23   0.526  -0.126  -0.100
    1UNL     H2   24   0.600   0.255   0.001
    1UNL     H3   25   0.364   0.297   0.057
    1UNL     H4   26   0.133   0.212   0.040
    1UNL     H5   27   0.071  -0.308  -0.109
    1UNL     H6   28   0.052  -0.282   0.069
    1UNL     H7   29  -0.170  -0.297   0.008
    1UNL     H8   30  -0.159  -0.223  -0.148
    1UNL     H9   31  -0.092   0.221   0.085
    1UNL    H10   32  -0.382   0.289   0.127
    1UNL    H11   33  -0.601   0.194   0.081
    1UNL    H12   34  -0.621  -0.040   0.027
    1UNL    H13   35  -0.440  -0.202   0.016
   0.00000   0.00000   0.00000   0.00000   0.00000   0.00000   0.00000   0.00000   0.00000
Generated with MDTraj, t= 50.0
 35
    1UNL     O1    1   0.285  -0.244  -0.116
    1UNL     C1    2   0.249  -0.134  -0.070
    1UNL     C2    3   0.349  -0.024  -0.062
    1UNL     C3    4   0.485  -0.032  -0.084
    1UNL     N1    5   0.578   0.057  -0.062
    1UNL     C4    6   0.530   0.178  -0.022
    1UNL     C5    7   0.399   0.197   0.003
    1UNL     C6    8   0.299   0.098  -0.008
    1UNL     C7    9   0.160   0.113   0.023
    1UNL     C8   10   0.078   0.005   0.027
    1UNL     N2   11   0.121  -0.116  -0.019
    1UNL     C9   12   0.043  -0.245  -0.007
    1UNL    C10   13  -0.107  -0.218  -0.043
    1UNL    C11   14  -0.155  -0.083   0.004
    1UNL    C12   15  -0.068   0.025   0.033
    1UNL     N3   16  -0.141   0.138   0.065
    1UNL    C13   17  -0.274   0.109   0.054
    1UNL    C14   18  -0.391   0.182   0.081
    1UNL    C15   19  -0.506   0.118   0.074
    1UNL    C16   20  -0.528  -0.011   0.040
    1UNL    C17   21  -0.417  -0.084   0.006
    1UNL    C18   22  -0.286  -0.027   0.021
    1UNL     H1   23   0.521  -0.131  -0.120
    1UNL     H2   24   0.597   0.260  -0.016
    1UNL     H3   25   0.366   0.294   0.039
    1UNL     H4   26   0.116   0.211   0.037
    1UNL     H5   27   0.101  -0.326  -0.064
    1UNL     H6   28   0.050  -0.254   0.098
    1UNL     H7   29  -0.181  -0.286   0.003
    1UNL     H8   30  -0.116  -0.235  -0.150
    1UNL     H9   31  -0.106   0.231   0.088
    1UNL    H10   32  -0.371   0.284   0.113
    1UNL    H11   33  -0.590   0.185   0.086
    1UNL    H12   34  -0.628  -0.045   0.028
    1UNL    H13   35  -0.424  -0.186  -0.008
   0.00000   0.00000   0.00000   0.00000   0.00000   0.00000   0.00000   0.00000   0.00000
Generated with MDTraj, t= 51.0
 35
    1UNL     O1    1   0.287  -0.255  -0.100
    1UNL     C1    2   0.255  -0.141  -0.055
    1UNL     C2    3   0.351  -0.028  -0.046
    1UNL     C3    4   0.487  -0.042  -0.075
    1UNL     N1    5   0.570   0.060  -0.078
    1UNL     C4    6   0.522   0.183  -0.045
    1UNL     C5    7   0.397   0.208  -0.002
    1UNL     C6    8   0.304   0.095   0.000
    1UNL     C7    9   0.172   0.114   0.038
    1UNL     C8   10   0.078   0.010   0.019
    1UNL     N2   11   0.123  -0.115  -0.029
    1UNL     C9   12   0.038  -0.233  -0.029
    1UNL    C10   13  -0.112  -0.216  -0.047
    1UNL    C11   14  -0.155  -0.079   0.011
    1UNL    C12   15  -0.064   0.022   0.038
    1UNL     N3   16  -0.143   0.137   0.068
    1UNL    C13   17  -0.278   0.107   0.071
    1UNL    C14   18  -0.390   0.183   0.090
    1UNL    C15   19  -0.508   0.119   0.064
    1UNL    C16   20  -0.524  -0.012   0.025
    1UNL    C17   21  -0.412  -0.083  -0.001
    1UNL    C18   22  -0.290  -0.029   0.029
    1UNL     H1   23   0.517  -0.137  -0.116
    1UNL     H2   24   0.593   0.270  -0.052
    1UNL     H3   25   0.362   0.303   0.021
    1UNL     H4   26   0.140   0.195   0.098
    1UNL     H5   27   0.081  -0.300  -0.110
    1UNL     H6   28   0.058  -0.270   0.069
    1UNL     H7   29  -0.158  -0.307  -0.000
    1UNL     H8   30  -0.153  -0.221  -0.147
    1UNL     H9   31  -0.111   0.236   0.090
    1UNL    H10   32  -0.392   0.286   0.113
    1UNL    H11   33  -0.602   0.174   0.073
    1UNL    H12   34  -0.627  -0.054   0.017
    1UNL    H13   35  -0.428  -0.188  -0.046
   0.00000   0.00000   0.00000   0.00000   0.00000   0.00000   0.00000   0.00000   0.00000
Generated with MDTraj, t= 52.0
 35
    1UNL     O1    1   0.302  -0.260  -0.058
    1UNL     C1    2   0.261  -0.142  -0.044
    1UNL     C2    3   0.347  -0.023  -0.054
    1UNL     C3    4   0.479  -0.031  -0.094
    1UNL     N1    5   0.563   0.071  -0.085
    1UNL     C4    6   0.514   0.183  -0.029
    1UNL     C5    7   0.383   0.203   0.004
    1UNL     C6    8   0.295   0.103  -0.015
    1UNL     C7    9   0.160   0.116   0.011
    1UNL     C8   10   0.075   0.004   0.002
    1UNL     N2   11   0.128  -0.125  -0.021
    1UNL     C9   12   0.035  -0.243  -0.023
    1UNL    C10   13  -0.108  -0.211  -0.069
    1UNL    C11   14  -0.157  -0.083  -0.005
    1UNL    C12   15  -0.066   0.019   0.028
    1UNL     N3   16  -0.129   0.126   0.090
    1UNL    C13   17  -0.265   0.093   0.072
    1UNL    C14   18  -0.375   0.179   0.096
    1UNL    C15   19  -0.504   0.137   0.078
    1UNL    C16   20  -0.522   0.011   0.022
    1UNL    C17   21  -0.424  -0.085  -0.002
    1UNL    C18   22  -0.288  -0.038   0.025
    1UNL     H1   23   0.519  -0.124  -0.127
    1UNL     H2   24   0.590   0.253  -0.005
    1UNL     H3   25   0.335   0.305   0.028
    1UNL     H4   26   0.120   0.211   0.055
    1UNL     H5   27   0.075  -0.312  -0.102
    1UNL     H6   28   0.027  -0.292   0.070
    1UNL     H7   29  -0.183  -0.290  -0.041
    1UNL     H8   30  -0.113  -0.211  -0.176
    1UNL     H9   31  -0.082   0.222   0.099
    1UNL    H10   32  -0.364   0.287   0.119
    1UNL    H11   33  -0.591   0.191   0.109
    1UNL    H12   34  -0.617  -0.030   0.010
    1UNL    H13   35  -0.452  -0.172  -0.050
   0.00000   0.00000   0.00000   0.00000   0.00000   0.00000   0.00000   0.00000   0.00000
Generated with MDTraj, t= 53.0
 35
    1UNL     O1    1   0.302  -0.255  -0.088
    1UNL     C1    2   0.263  -0.142  -0.045
    1UNL     C2    3   0.357  -0.032  -0.024
    1UNL     C3    4   0.490  -0.043  -0.058
    1UNL     N1    5   0.577   0.063  -0.065
    1UNL     C4    6   0.515   0.179  -0.061
    1UNL     C5    7   0.385   0.205  -0.034
    1UNL     C6    8   0.297   0.098  -0.004
    1UNL     C7    9   0.154   0.115   0.013
    1UNL     C8   10   0.073   0.005   0.024
    1UNL     N2   11   0.129  -0.121  -0.012
    1UNL     C9   12   0.037  -0.237  -0.028
    1UNL    C10   13  -0.114  -0.205  -0.062
    1UNL    C11   14  -0.158  -0.073  -0.018
    1UNL    C12   15  -0.069   0.024   0.030
    1UNL     N3   16  -0.142   0.130   0.077
    1UNL    C13   17  -0.275   0.106   0.065
    1UNL    C14   18  -0.386   0.176   0.114
    1UNL    C15   19  -0.509   0.118   0.097
    1UNL    C16   20  -0.522  -0.011   0.038
    1UNL    C17   21  -0.415  -0.072  -0.020
    1UNL    C18   22  -0.286  -0.019  -0.003
    1UNL     H1   23   0.527  -0.149  -0.069
    1UNL     H2   24   0.578   0.270  -0.076
    1UNL     H3   25   0.347   0.298  -0.030
    1UNL     H4   26   0.116   0.212   0.014
    1UNL     H5   27   0.073  -0.300  -0.111
    1UNL     H6   28   0.036  -0.292   0.063
    1UNL     H7   29  -0.187  -0.284  -0.027
    1UNL     H8   30  -0.135  -0.202  -0.167
    1UNL     H9   31  -0.090   0.217   0.113
    1UNL    H10   32  -0.376   0.275   0.148
    1UNL    H11   33  -0.602   0.165   0.136
    1UNL    H12   34  -0.622  -0.058   0.043
    1UNL    H13   35  -0.413  -0.168  -0.070
   0.00000   0.00000   0.00000   0.00000   0.00000   0.00000   0.00000   0.00000   0.00000
Generated with MDTraj, t= 54.0
 35
    1UNL     O1    1   0.299  -0.256  -0.051
    1UNL     C1    2   0.253  -0.138  -0.048
    1UNL     C2    3   0.355  -0.030  -0.046
    1UNL     C3    4   0.486  -0.051  -0.080
    1UNL     N1    5   0.577   0.045  -0.067
    1UNL     C4    6   0.532   0.167  -0.025
    1UNL     C5    7   0.398   0.202  -0.014
    1UNL     C6    8   0.303   0.099  -0.020
    1UNL     C7    9   0.165   0.122  -0.007
    1UNL     C8   10   0.070   0.024  -0.017
    1UNL     N2   11   0.118  -0.106  -0.041
    1UNL     C9   12   0.031  -0.221  -0.015
    1UNL    C10   13  -0.103  -0.189  -0.080
    1UNL    C11   14  -0.153  -0.067  -0.017
    1UNL    C12   15  -0.072   0.035   0.015
    1UNL     N3   16  -0.146   0.135   0.077
    1UNL    C13   17  -0.278   0.101   0.082
    1UNL    C14   18  -0.393   0.167   0.114
    1UNL    C15   19  -0.518   0.109   0.088
    1UNL    C16   20  -0.526  -0.028   0.034
    1UNL    C17   21  -0.413  -0.089   0.014
    1UNL    C18   22  -0.284  -0.030   0.027
    1UNL     H1   23   0.521  -0.146  -0.101
    1UNL     H2   24   0.611   0.233  -0.015
    1UNL     H3   25   0.366   0.299   0.036
    1UNL     H4   26   0.135   0.218   0.034
    1UNL     H5   27   0.079  -0.308  -0.061
    1UNL     H6   28   0.030  -0.233   0.091
    1UNL     H7   29  -0.185  -0.267  -0.089
    1UNL     H8   30  -0.090  -0.161  -0.183
    1UNL     H9   31  -0.111   0.227   0.116
    1UNL    H10   32  -0.384   0.269   0.156
    1UNL    H11   33  -0.601   0.173   0.089
    1UNL    H12   34  -0.618  -0.072   0.007
    1UNL    H13   35  -0.405  -0.198  -0.013
   0.00000   0.00000   0.00000   0.00000   0.00000   0.00000   0.00000   0.00000   0.00000
Generated with MDTraj, t= 55.0
 35
    1UNL     O1    1   0.306  -0.255  -0.086
    1UNL     C1    2   0.257  -0.145  -0.051
    1UNL     C2    3   0.344  -0.031  -0.033
    1UNL     C3    4   0.478  -0.043  -0.051
    1UNL     N1    5   0.570   0.053  -0.052
    1UNL     C4    6   0.521   0.180  -0.031
    1UNL     C5    7   0.392   0.204  -0.013
    1UNL     C6    8   0.297   0.100  -0.010
    1UNL     C7    9   0.158   0.117   0.016
    1UNL     C8   10   0.074   0.011   0.001
    1UNL     N2   11   0.124  -0.121  -0.028
    1UNL     C9   12   0.037  -0.236  -0.038
    1UNL    C10   13  -0.112  -0.209  -0.059
    1UNL    C11   14  -0.163  -0.073  -0.025
    1UNL    C12   15  -0.071   0.030   0.006
    1UNL     N3   16  -0.134   0.150   0.038
    1UNL    C13   17  -0.275   0.115   0.038
    1UNL    C14   18  -0.384   0.179   0.105
    1UNL    C15   19  -0.503   0.109   0.128
    1UNL    C16   20  -0.519  -0.017   0.064
    1UNL    C17   21  -0.414  -0.091   0.006
    1UNL    C18   22  -0.288  -0.020   0.005
    1UNL     H1   23   0.519  -0.148  -0.067
    1UNL     H2   24   0.592   0.272  -0.026
    1UNL     H3   25   0.359   0.306  -0.007
    1UNL     H4   26   0.115   0.216   0.040
    1UNL     H5   27   0.080  -0.286  -0.124
    1UNL     H6   28   0.061  -0.302   0.043
    1UNL     H7   29  -0.181  -0.279  -0.002
    1UNL     H8   30  -0.148  -0.231  -0.158
    1UNL     H9   31  -0.103   0.232   0.092
    1UNL    H10   32  -0.364   0.271   0.157
    1UNL    H11   33  -0.590   0.156   0.180
    1UNL    H12   34  -0.616  -0.067   0.056
    1UNL    H13   35  -0.407  -0.189  -0.026
   0.00000   0.00000   0.00000   0.00000   0.00000   0.00000   0.00000   0.00000   0.00000
Generated with MDTraj, t= 56.0
 35
    1UNL     O1    1   0.317  -0.248  -0.074
    1UNL     C1    2   0.262  -0.138  -0.064
    1UNL     C2    3   0.346  -0.025  -0.057
    1UNL     C3    4   0.488  -0.038  -0.059
    1UNL     N1    5   0.572   0.058  -0.038
    1UNL     C4    6   0.516   0.180  -0.005
    1UNL     C5    7   0.381   0.200   0.012
    1UNL     C6    8   0.291   0.097  -0.021
    1UNL     C7    9   0.155   0.115  -0.013
    1UNL     C8   10   0.076   0.003  -0.017
    1UNL     N2   11   0.126  -0.123  -0.048
    1UNL     C9   12   0.036  -0.238  -0.040
    1UNL    C10   13  -0.111  -0.210  -0.074
    1UNL    C11   14  -0.160  -0.087  -0.013
    1UNL    C12   15  -0.069   0.017   0.005
    1UNL     N3   16  -0.140   0.136   0.039
    1UNL    C13   17  -0.270   0.103   0.063
    1UNL    C14   18  -0.373   0.187   0.099
    1UNL    C15   19  -0.509   0.138   0.094
    1UNL    C16   20  -0.524  -0.004   0.080
    1UNL    C17   21  -0.420  -0.086   0.036
    1UNL    C18   22  -0.291  -0.036   0.028
    1UNL     H1   23   0.532  -0.127  -0.082
    1UNL     H2   24   0.583   0.255   0.010
    1UNL     H3   25   0.336   0.296   0.022
    1UNL     H4   26   0.109   0.207  -0.013
    1UNL     H5   27   0.064  -0.316  -0.107
    1UNL     H6   28   0.038  -0.281   0.059
    1UNL     H7   29  -0.171  -0.301  -0.048
    1UNL     H8   30  -0.126  -0.199  -0.181
    1UNL     H9   31  -0.102   0.226   0.060
    1UNL    H10   32  -0.352   0.290   0.119
    1UNL    H11   33  -0.584   0.206   0.122
    1UNL    H12   34  -0.617  -0.045   0.111
    1UNL    H13   35  -0.437  -0.194   0.016
   0.00000   0.00000   0.00000   0.00000   0.00000   0.00000   0.00000   0.00000   0.00000
Generated with MDTraj, t= 57.0
 35
    1UNL     O1    1   0.293  -0.251  -0.091
    1UNL     C1    2   0.256  -0.136  -0.062
    1UNL     C2    3   0.348  -0.027  -0.052
    1UNL     C3    4   0.484  -0.048  -0.039
    1UNL     N1    5   0.579   0.049  -0.040
    1UNL     C4    6   0.527   0.169  -0.018
    1UNL     C5    7   0.394   0.202   0.001
    1UNL     C6    8   0.296   0.100  -0.024
    1UNL     C7    9   0.157   0.122  -0.007
    1UNL     C8   10   0.071   0.017  -0.026
    1UNL     N2   11   0.119  -0.113  -0.049
    1UNL     C9   12   0.038  -0.231  -0.049
    1UNL    C10   13  -0.116  -0.208  -0.034
    1UNL    C11   14  -0.153  -0.073  -0.007
    1UNL    C12   15  -0.070   0.035   0.004
    1UNL     N3   16  -0.143   0.143   0.055
    1UNL    C13   17  -0.275   0.110   0.062
    1UNL    C14   18  -0.388   0.181   0.101
    1UNL    C15   19  -0.505   0.112   0.093
    1UNL    C16   20  -0.521  -0.025   0.053
    1UNL    C17   21  -0.404  -0.093   0.029
    1UNL    C18   22  -0.280  -0.027   0.029
    1UNL     H1   23   0.512  -0.158  -0.055
    1UNL     H2   24   0.600   0.257  -0.017
    1UNL     H3   25   0.369   0.300   0.051
    1UNL     H4   26   0.115   0.219   0.034
    1UNL     H5   27   0.055  -0.297  -0.131
    1UNL     H6   28   0.058  -0.285   0.042
    1UNL     H7   29  -0.158  -0.266   0.050
    1UNL     H8   30  -0.160  -0.247  -0.126
    1UNL     H9   31  -0.115   0.236   0.070
    1UNL    H10   32  -0.385   0.289   0.119
    1UNL    H11   33  -0.595   0.164   0.129
    1UNL    H12   34  -0.615  -0.084   0.052
    1UNL    H13   35  -0.405  -0.191  -0.018
   0.00000   0.00000   0.00000   0.00000   0.00000   0.00000   0.00000   0.00000   0.00000
Generated with MDTraj, t= 58.0
 35
    1UNL     O1    1   0.293  -0.249  -0.100
    1UNL     C1    2   0.257  -0.141  -0.056
    1UNL     C2    3   0.350  -0.024  -0.044
    1UNL     C3    4   0.485  -0.045  -0.049
    1UNL     N1    5   0.576   0.053  -0.050
    1UNL     C4    6   0.532   0.178  -0.031
    1UNL     C5    7   0.396   0.204  -0.004
    1UNL     C6    8   0.304   0.103  -0.013
    1UNL     C7    9   0.167   0.115   0.013
    1UNL     C8   10   0.076   0.014   0.007
    1UNL     N2   11   0.126  -0.118  -0.020
    1UNL     C9   12   0.039  -0.232  -0.059
    1UNL    C10   13  -0.117  -0.215  -0.044
    1UNL    C11   14  -0.159  -0.078  -0.011
    1UNL    C12   15  -0.069   0.025   0.014
    1UNL     N3   16  -0.139   0.141   0.053
    1UNL    C13   17  -0.275   0.109   0.046
    1UNL    C14   18  -0.396   0.186   0.084
    1UNL    C15   19  -0.516   0.120   0.098
    1UNL    C16   20  -0.524  -0.018   0.066
    1UNL    C17   21  -0.415  -0.093   0.025
    1UNL    C18   22  -0.288  -0.027   0.015
    1UNL     H1   23   0.522  -0.140  -0.065
    1UNL     H2   24   0.605   0.249  -0.042
    1UNL     H3   25   0.367   0.294   0.033
    1UNL     H4   26   0.121   0.211   0.023
    1UNL     H5   27   0.069  -0.261  -0.159
    1UNL     H6   28   0.087  -0.318  -0.014
    1UNL     H7   29  -0.154  -0.284   0.035
    1UNL     H8   30  -0.187  -0.249  -0.123
    1UNL     H9   31  -0.096   0.224   0.081
    1UNL    H10   32  -0.383   0.289   0.094
    1UNL    H11   33  -0.608   0.166   0.119
    1UNL    H12   34  -0.621  -0.058   0.071
    1UNL    H13   35  -0.429  -0.195   0.003
   0.00000   0.00000   0.00000   0.00000   0.00000   0.00000   0.00000   0.00000   0.00000
Generated with MDTraj, t= 59.0
 35
    1UNL     O1    1   0.306  -0.255  -0.061
    1UNL     C1    2   0.259  -0.141  -0.065
    1UNL     C2    3   0.348  -0.025  -0.051
    1UNL     C3    4   0.484  -0.027  -0.083
    1UNL     N1    5   0.570   0.076  -0.067
    1UNL     C4    6   0.519   0.188  -0.014
    1UNL     C5    7   0.391   0.198   0.024
    1UNL     C6    8   0.299   0.094  -0.003
    1UNL     C7    9   0.160   0.106   0.020
    1UNL     C8   10   0.069   0.003  -0.011
    1UNL     N2   11   0.118  -0.121  -0.058
    1UNL     C9   12   0.036  -0.240  -0.080
    1UNL    C10   13  -0.115  -0.231  -0.024
    1UNL    C11   14  -0.155  -0.091   0.014
    1UNL    C12   15  -0.072   0.017   0.014
    1UNL     N3   16  -0.135   0.135   0.036
    1UNL    C13   17  -0.265   0.103   0.070
    1UNL    C14   18  -0.378   0.190   0.088
    1UNL    C15   19  -0.502   0.141   0.073
    1UNL    C16   20  -0.523   0.003   0.052
    1UNL    C17   21  -0.421  -0.080   0.026
    1UNL    C18   22  -0.288  -0.041   0.041
    1UNL     H1   23   0.523  -0.125  -0.122
    1UNL     H2   24   0.583   0.282   0.005
    1UNL     H3   25   0.348   0.296   0.061
    1UNL     H4   26   0.122   0.203   0.035
    1UNL     H5   27   0.042  -0.249  -0.189
    1UNL     H6   28   0.086  -0.331  -0.051
    1UNL     H7   29  -0.140  -0.300   0.060
    1UNL     H8   30  -0.183  -0.279  -0.096
    1UNL     H9   31  -0.100   0.228   0.054
    1UNL    H10   32  -0.362   0.300   0.113
    1UNL    H11   33  -0.585   0.214   0.063
    1UNL    H12   34  -0.628  -0.030   0.044
    1UNL    H13   35  -0.450  -0.190   0.020
   0.00000   0.00000   0.00000   0.00000   0.00000   0.00000   0.00000   0.00000   0.00000
Generated with MDTraj, t= 60.0
 35
    1UNL     O1    1   0.290  -0.239  -0.125
    1UNL     C1    2   0.258  -0.139  -0.062
    1UNL     C2    3   0.351  -0.032  -0.033
    1UNL     C3    4   0.493  -0.045  -0.059
    1UNL     N1    5   0.577   0.056  -0.055
    1UNL     C4    6   0.520   0.177  -0.026
    1UNL     C5    7   0.388   0.201  -0.007
    1UNL     C6    8   0.297   0.094  -0.001
    1UNL     C7    9   0.161   0.109   0.031
    1UNL     C8   10   0.077   0.004   0.014
    1UNL     N2   11   0.119  -0.119  -0.033
    1UNL     C9   12   0.027  -0.220  -0.072
    1UNL    C10   13  -0.112  -0.218  -0.004
    1UNL    C11   14  -0.156  -0.081   0.017
    1UNL    C12   15  -0.067   0.024   0.037
    1UNL     N3   16  -0.141   0.145   0.043
    1UNL    C13   17  -0.277   0.115   0.039
    1UNL    C14   18  -0.389   0.190   0.066
    1UNL    C15   19  -0.500   0.111   0.077
    1UNL    C16   20  -0.521  -0.017   0.044
    1UNL    C17   21  -0.407  -0.090   0.028
    1UNL    C18   22  -0.284  -0.026   0.030
    1UNL     H1   23   0.531  -0.137  -0.088
    1UNL     H2   24   0.586   0.254  -0.023
    1UNL     H3   25   0.343   0.294   0.015
    1UNL     H4   26   0.124   0.207   0.075
    1UNL     H5   27   0.002  -0.206  -0.176
    1UNL     H6   28   0.072  -0.318  -0.060
    1UNL     H7   29  -0.112  -0.283   0.084
    1UNL     H8   30  -0.186  -0.265  -0.072
    1UNL     H9   31  -0.096   0.238   0.045
    1UNL    H10   32  -0.371   0.287   0.096
    1UNL    H11   33  -0.585   0.164   0.109
    1UNL    H12   34  -0.613  -0.066   0.049
    1UNL    H13   35  -0.411  -0.193   0.032
   0.00000   0.00000   0.00000   0.00000   0.00000   0.00000   0.00000   0.00000   0.00000
Generated with MDTraj, t= 61.0
 35
    1UNL     O1    1   0.295  -0.240  -0.113
    1UNL     C1    2   0.260  -0.130  -0.078
    1UNL     C2    3   0.350  -0.022  -0.059
    1UNL     C3    4   0.482  -0.041  -0.091
    1UNL     N1    5   0.582   0.041  -0.055
    1UNL     C4    6   0.536   0.153   0.010
    1UNL     C5    7   0.406   0.194   0.021
    1UNL     C6    8   0.307   0.101  -0.009
    1UNL     C7    9   0.168   0.126   0.005
    1UNL     C8   10   0.078   0.022  -0.006
    1UNL     N2   11   0.122  -0.111  -0.053
    1UNL     C9   12   0.025  -0.218  -0.068
    1UNL    C10   13  -0.103  -0.216   0.016
    1UNL    C11   14  -0.151  -0.078   0.032
    1UNL    C12   15  -0.066   0.031   0.030
    1UNL     N3   16  -0.148   0.149   0.055
    1UNL    C13   17  -0.285   0.103   0.053
    1UNL    C14   18  -0.402   0.177   0.063
    1UNL    C15   19  -0.524   0.119   0.049
    1UNL    C16   20  -0.525  -0.020   0.045
    1UNL    C17   21  -0.413  -0.100   0.047
    1UNL    C18   22  -0.287  -0.035   0.042
    1UNL     H1   23   0.511  -0.136  -0.142
    1UNL     H2   24   0.621   0.222   0.047
    1UNL     H3   25   0.386   0.291   0.065
    1UNL     H4   26   0.134   0.214   0.045
    1UNL     H5   27   0.002  -0.227  -0.173
    1UNL     H6   28   0.067  -0.315  -0.037
    1UNL     H7   29  -0.084  -0.257   0.114
    1UNL     H8   30  -0.177  -0.287  -0.030
    1UNL     H9   31  -0.120   0.250   0.067
    1UNL    H10   32  -0.404   0.288   0.069
    1UNL    H11   33  -0.620   0.170   0.059
    1UNL    H12   34  -0.626  -0.065   0.053
    1UNL    H13   35  -0.429  -0.210   0.040
   0.00000   0.00000   0.00000   0.00000   0.00000   0.00000   0.00000   0.00000   0.00000
Generated with MDTraj, t= 62.0
 35
    1UNL     O1    1   0.294  -0.239  -0.133
    1UNL     C1    2   0.251  -0.136  -0.083
    1UNL     C2    3   0.343  -0.032  -0.027
    1UNL     C3    4   0.475  -0.041  -0.069
    1UNL     N1    5   0.571   0.055  -0.054
    1UNL     C4    6   0.528   0.170  -0.008
    1UNL     C5    7   0.396   0.193   0.033
    1UNL     C6    8   0.299   0.092   0.021
    1UNL     C7    9   0.160   0.113   0.026
    1UNL     C8   10   0.075   0.013  -0.007
    1UNL     N2   11   0.116  -0.109  -0.063
    1UNL     C9   12   0.024  -0.220  -0.089
    1UNL    C10   13  -0.092  -0.221   0.018
    1UNL    C11   14  -0.150  -0.086   0.031
    1UNL    C12   15  -0.072   0.027   0.012
    1UNL     N3   16  -0.137   0.147   0.020
    1UNL    C13   17  -0.271   0.110   0.042
    1UNL    C14   18  -0.392   0.186   0.053
    1UNL    C15   19  -0.514   0.124   0.053
    1UNL    C16   20  -0.514  -0.018   0.074
    1UNL    C17   21  -0.405  -0.096   0.065
    1UNL    C18   22  -0.278  -0.034   0.046
    1UNL     H1   23   0.510  -0.127  -0.121
    1UNL     H2   24   0.596   0.245   0.006
    1UNL     H3   25   0.359   0.294   0.057
    1UNL     H4   26   0.109   0.205   0.059
    1UNL     H5   27  -0.020  -0.209  -0.186
    1UNL     H6   28   0.078  -0.317  -0.098
    1UNL     H7   29  -0.052  -0.248   0.113
    1UNL     H8   30  -0.176  -0.294   0.002
    1UNL     H9   31  -0.102   0.249   0.016
    1UNL    H10   32  -0.394   0.291   0.026
    1UNL    H11   33  -0.606   0.180   0.056
    1UNL    H12   34  -0.610  -0.064   0.089
    1UNL    H13   35  -0.416  -0.201   0.052
   0.00000   0.00000   0.00000   0.00000   0.00000   0.00000   0.00000   0.00000   0.00000
Generated with MDTraj, t= 63.0
 35
    1UNL     O1    1   0.294  -0.234  -0.119
    1UNL     C1    2   0.254  -0.132  -0.071
    1UNL     C2    3   0.347  -0.025  -0.056
    1UNL     C3    4   0.487  -0.040  -0.072
    1UNL     N1    5   0.578   0.051  -0.037
    1UNL     C4    6   0.530   0.167   0.012
    1UNL     C5    7   0.396   0.200   0.019
    1UNL     C6    8   0.300   0.101  -0.013
    1UNL     C7    9   0.160   0.112   0.011
    1UNL     C8   10   0.068   0.011  -0.005
    1UNL     N2   11   0.116  -0.116  -0.037
    1UNL     C9   12   0.033  -0.228  -0.076
    1UNL    C10   13  -0.108  -0.224  -0.011
    1UNL    C11   14  -0.155  -0.087   0.012
    1UNL    C12   15  -0.071   0.027   0.012
    1UNL     N3   16  -0.146   0.140   0.024
    1UNL    C13   17  -0.272   0.112   0.031
    1UNL    C14   18  -0.391   0.193   0.045
    1UNL    C15   19  -0.507   0.119   0.087
    1UNL    C16   20  -0.521  -0.019   0.084
    1UNL    C17   21  -0.408  -0.092   0.063
    1UNL    C18   22  -0.279  -0.034   0.040
    1UNL     H1   23   0.516  -0.140  -0.111
    1UNL     H2   24   0.610   0.235   0.055
    1UNL     H3   25   0.369   0.293   0.056
    1UNL     H4   26   0.129   0.199   0.071
    1UNL     H5   27   0.028  -0.225  -0.182
    1UNL     H6   28   0.086  -0.325  -0.058
    1UNL     H7   29  -0.125  -0.276   0.080
    1UNL     H8   30  -0.190  -0.263  -0.079
    1UNL     H9   31  -0.122   0.241  -0.003
    1UNL    H10   32  -0.376   0.297   0.034
    1UNL    H11   33  -0.590   0.180   0.114
    1UNL    H12   34  -0.618  -0.065   0.103
    1UNL    H13   35  -0.405  -0.198   0.057
   0.00000   0.00000   0.00000   0.00000   0.00000   0.00000   0.00000   0.00000   0.00000
Generated with MDTraj, t= 64.0
 35
    1UNL     O1    1   0.302  -0.256  -0.087
    1UNL     C1    2   0.263  -0.143  -0.073
    1UNL     C2    3   0.350  -0.028  -0.054
    1UNL     C3    4   0.492  -0.040  -0.048
    1UNL     N1    5   0.577   0.056  -0.024
    1UNL     C4    6   0.525   0.176   0.000
    1UNL     C5    7   0.390   0.199   0.008
    1UNL     C6    8   0.301   0.093  -0.017
    1UNL     C7    9   0.163   0.115  -0.006
    1UNL     C8   10   0.075   0.013  -0.032
    1UNL     N2   11   0.125  -0.114  -0.068
    1UNL     C9   12   0.024  -0.221  -0.086
    1UNL    C10   13  -0.103  -0.214   0.006
    1UNL    C11   14  -0.156  -0.082   0.007
    1UNL    C12   15  -0.077   0.031  -0.011
    1UNL     N3   16  -0.145   0.146   0.022
    1UNL    C13   17  -0.276   0.105   0.067
    1UNL    C14   18  -0.386   0.184   0.095
    1UNL    C15   19  -0.509   0.122   0.105
    1UNL    C16   20  -0.524  -0.019   0.069
    1UNL    C17   21  -0.415  -0.089   0.023
    1UNL    C18   22  -0.288  -0.032   0.036
    1UNL     H1   23   0.525  -0.139  -0.064
    1UNL     H2   24   0.591   0.255   0.014
    1UNL     H3   25   0.347   0.300   0.034
    1UNL     H4   26   0.112   0.195   0.036
    1UNL     H5   27  -0.006  -0.219  -0.189
    1UNL     H6   28   0.078  -0.320  -0.076
    1UNL     H7   29  -0.089  -0.244   0.108
    1UNL     H8   30  -0.187  -0.279  -0.034
    1UNL     H9   31  -0.111   0.247   0.026
    1UNL    H10   32  -0.375   0.293   0.125
    1UNL    H11   33  -0.598   0.187   0.124
    1UNL    H12   34  -0.620  -0.068   0.080
    1UNL    H13   35  -0.420  -0.200   0.009
   0.00000   0.00000   0.00000   0.00000   0.00000   0.00000   0.00000   0.00000   0.00000
Generated with MDTraj, t= 65.0
 35
    1UNL     O1    1   0.295  -0.249  -0.084
    1UNL     C1    2   0.260  -0.139  -0.057
    1UNL     C2    3   0.348  -0.030  -0.030
    1UNL     C3    4   0.488  -0.048  -0.026
    1UNL     N1    5   0.579   0.049  -0.023
    1UNL     C4    6   0.525   0.173  -0.033
    1UNL     C5    7   0.393   0.202  -0.007
    1UNL     C6    8   0.297   0.100  -0.012
    1UNL     C7    9   0.160   0.121  -0.003
    1UNL     C8   10   0.075   0.015  -0.016
    1UNL     N2   11   0.122  -0.120  -0.047
    1UNL     C9   12   0.028  -0.216  -0.096
    1UNL    C10   13  -0.120  -0.209  -0.060
    1UNL    C11   14  -0.156  -0.074  -0.010
    1UNL    C12   15  -0.067   0.031  -0.001
    1UNL     N3   16  -0.137   0.149   0.041
    1UNL    C13   17  -0.275   0.106   0.054
    1UNL    C14   18  -0.391   0.181   0.075
    1UNL    C15   19  -0.516   0.118   0.097
    1UNL    C16   20  -0.518  -0.025   0.094
    1UNL    C17   21  -0.406  -0.100   0.053
    1UNL    C18   22  -0.282  -0.032   0.035
    1UNL     H1   23   0.532  -0.153  -0.020
    1UNL     H2   24   0.596   0.258  -0.052
    1UNL     H3   25   0.367   0.302  -0.005
    1UNL     H4   26   0.122   0.226   0.016
    1UNL     H5   27   0.036  -0.209  -0.202
    1UNL     H6   28   0.062  -0.321  -0.062
    1UNL     H7   29  -0.134  -0.276   0.023
    1UNL     H8   30  -0.190  -0.239  -0.142
    1UNL     H9   31  -0.100   0.247   0.051
    1UNL    H10   32  -0.382   0.284   0.073
    1UNL    H11   33  -0.602   0.175   0.112
    1UNL    H12   34  -0.606  -0.083   0.102
    1UNL    H13   35  -0.404  -0.203   0.055
   0.00000   0.00000   0.00000   0.00000   0.00000   0.00000   0.00000   0.00000   0.00000
Generated with MDTraj, t= 66.0
 35
    1UNL     O1    1   0.295  -0.249  -0.057
    1UNL     C1    2   0.252  -0.135  -0.052
    1UNL     C2    3   0.344  -0.020  -0.055
    1UNL     C3    4   0.480  -0.046  -0.062
    1UNL     N1    5   0.575   0.050  -0.046
    1UNL     C4    6   0.531   0.168   0.001
    1UNL     C5    7   0.400   0.202   0.014
    1UNL     C6    8   0.303   0.111  -0.025
    1UNL     C7    9   0.156   0.125  -0.011
    1UNL     C8   10   0.071   0.018  -0.030
    1UNL     N2   11   0.113  -0.112  -0.046
    1UNL     C9   12   0.038  -0.230  -0.069
    1UNL    C10   13  -0.117  -0.221  -0.044
    1UNL    C11   14  -0.159  -0.084  -0.017
    1UNL    C12   15  -0.073   0.028  -0.003
    1UNL     N3   16  -0.144   0.139   0.044
    1UNL    C13   17  -0.277   0.108   0.039
    1UNL    C14   18  -0.379   0.182   0.099
    1UNL    C15   19  -0.499   0.116   0.113
    1UNL    C16   20  -0.515  -0.019   0.076
    1UNL    C17   21  -0.408  -0.093   0.037
    1UNL    C18   22  -0.287  -0.030   0.014
    1UNL     H1   23   0.519  -0.139  -0.070
    1UNL     H2   24   0.606   0.237   0.031
    1UNL     H3   25   0.360   0.294   0.062
    1UNL     H4   26   0.120   0.217   0.020
    1UNL     H5   27   0.050  -0.261  -0.171
    1UNL     H6   28   0.079  -0.311   0.003
    1UNL     H7   29  -0.150  -0.285   0.035
    1UNL     H8   30  -0.164  -0.259  -0.138
    1UNL     H9   31  -0.109   0.234   0.053
    1UNL    H10   32  -0.349   0.287   0.122
    1UNL    H11   33  -0.586   0.177   0.147
    1UNL    H12   34  -0.614  -0.065   0.085
    1UNL    H13   35  -0.414  -0.196  -0.008
   0.00000   0.00000   0.00000   0.00000   0.00000   0.00000   0.00000   0.00000   0.00000
Generated with MDTraj, t= 67.0
 35
    1UNL     O1    1   0.298  -0.251  -0.101
    1UNL     C1    2   0.261  -0.143  -0.061
    1UNL     C2    3   0.353  -0.030  -0.033
    1UNL     C3    4   0.496  -0.039  -0.040
    1UNL     N1    5   0.575   0.070  -0.047
    1UNL     C4    6   0.519   0.185  -0.022
    1UNL     C5    7   0.386   0.204   0.001
    1UNL     C6    8   0.297   0.094  -0.004
    1UNL     C7    9   0.157   0.108   0.002
    1UNL     C8   10   0.069   0.002  -0.004
    1UNL     N2   11   0.121  -0.120  -0.050
    1UNL     C9   12   0.037  -0.239  -0.057
    1UNL    C10   13  -0.118  -0.221  -0.031
    1UNL    C11   14  -0.161  -0.081  -0.007
    1UNL    C12   15  -0.075   0.020   0.004
    1UNL     N3   16  -0.135   0.146   0.023
    1UNL    C13   17  -0.267   0.114   0.048
    1UNL    C14   18  -0.378   0.178   0.114
    1UNL    C15   19  -0.503   0.126   0.105
    1UNL    C16   20  -0.527  -0.011   0.060
    1UNL    C17   21  -0.418  -0.081   0.023
    1UNL    C18   22  -0.289  -0.025   0.014
    1UNL     H1   23   0.538  -0.150  -0.052
    1UNL     H2   24   0.582   0.275  -0.023
    1UNL     H3   25   0.350   0.301   0.030
    1UNL     H4   26   0.120   0.210  -0.007
    1UNL     H5   27   0.063  -0.286  -0.151
    1UNL     H6   28   0.092  -0.312   0.014
    1UNL     H7   29  -0.154  -0.284   0.049
    1UNL     H8   30  -0.185  -0.260  -0.111
    1UNL     H9   31  -0.100   0.233   0.056
    1UNL    H10   32  -0.363   0.278   0.153
    1UNL    H11   33  -0.580   0.184   0.146
    1UNL    H12   34  -0.623  -0.057   0.073
    1UNL    H13   35  -0.429  -0.179  -0.010
   0.00000   0.00000   0.00000   0.00000   0.00000   0.00000   0.00000   0.00000   0.00000
Generated with MDTraj, t= 68.0
 35
    1UNL     O1    1   0.300  -0.257  -0.097
    1UNL     C1    2   0.263  -0.145  -0.066
    1UNL     C2    3   0.352  -0.032  -0.052
    1UNL     C3    4   0.493  -0.038  -0.070
    1UNL     N1    5   0.574   0.064  -0.046
    1UNL     C4    6   0.522   0.182  -0.012
    1UNL     C5    7   0.386   0.203   0.003
    1UNL     C6    8   0.304   0.097  -0.019
    1UNL     C7    9   0.165   0.113   0.012
    1UNL     C8   10   0.075   0.008   0.005
    1UNL     N2   11   0.125  -0.118  -0.044
    1UNL     C9   12   0.027  -0.226  -0.084
    1UNL    C10   13  -0.123  -0.212  -0.036
    1UNL    C11   14  -0.152  -0.084   0.019
    1UNL    C12   15  -0.065   0.023   0.043
    1UNL     N3   16  -0.142   0.142   0.059
    1UNL    C13   17  -0.275   0.104   0.057
    1UNL    C14   18  -0.392   0.189   0.075
    1UNL    C15   19  -0.514   0.130   0.063
    1UNL    C16   20  -0.522  -0.008   0.047
    1UNL    C17   21  -0.412  -0.097   0.044
    1UNL    C18   22  -0.282  -0.035   0.038
    1UNL     H1   23   0.527  -0.128  -0.092
    1UNL     H2   24   0.602   0.255   0.005
    1UNL     H3   25   0.345   0.298   0.028
    1UNL     H4   26   0.121   0.212   0.029
    1UNL     H5   27   0.042  -0.233  -0.191
    1UNL     H6   28   0.069  -0.327  -0.048
    1UNL     H7   29  -0.148  -0.285   0.042
    1UNL     H8   30  -0.197  -0.243  -0.111
    1UNL     H9   31  -0.102   0.226   0.090
    1UNL    H10   32  -0.383   0.293   0.094
    1UNL    H11   33  -0.609   0.183   0.089
    1UNL    H12   34  -0.622  -0.050   0.048
    1UNL    H13   35  -0.432  -0.202   0.068
   0.00000   0.00000   0.00000   0.00000   0.00000   0.00000   0.00000   0.00000   0.00000
Generated with MDTraj, t= 69.0
 35
    1UNL     O1    1   0.285  -0.244  -0.106
    1UNL     C1    2   0.257  -0.132  -0.064
    1UNL     C2    3   0.343  -0.024  -0.041
    1UNL     C3    4   0.476  -0.043  -0.082
    1UNL     N1    5   0.574   0.047  -0.072
    1UNL     C4    6   0.528   0.157  -0.018
    1UNL     C5    7   0.400   0.197   0.023
    1UNL     C6    8   0.299   0.098   0.008
    1UNL     C7    9   0.161   0.116   0.037
    1UNL     C8   10   0.074   0.019  -0.007
    1UNL     N2   11   0.121  -0.101  -0.051
    1UNL     C9   12   0.028  -0.207  -0.085
    1UNL    C10   13  -0.088  -0.214   0.024
    1UNL    C11   14  -0.152  -0.086   0.024
    1UNL    C12   15  -0.070   0.025   0.025
    1UNL     N3   16  -0.140   0.142   0.053
    1UNL    C13   17  -0.272   0.103   0.050
    1UNL    C14   18  -0.387   0.177   0.066
    1UNL    C15   19  -0.508   0.115   0.066
    1UNL    C16   20  -0.528  -0.016   0.037
    1UNL    C17   21  -0.413  -0.092   0.025
    1UNL    C18   22  -0.284  -0.038   0.032
    1UNL     H1   23   0.504  -0.148  -0.129
    1UNL     H2   24   0.600   0.236  -0.005
    1UNL     H3   25   0.376   0.300   0.056
    1UNL     H4   26   0.127   0.203   0.082
    1UNL     H5   27  -0.021  -0.191  -0.180
    1UNL     H6   28   0.087  -0.306  -0.085
    1UNL     H7   29  -0.045  -0.245   0.119
    1UNL     H8   30  -0.161  -0.293   0.000
    1UNL     H9   31  -0.108   0.234   0.065
    1UNL    H10   32  -0.384   0.288   0.088
    1UNL    H11   33  -0.596   0.172   0.065
    1UNL    H12   34  -0.628  -0.059   0.023
    1UNL    H13   35  -0.428  -0.201   0.019
   0.00000   0.00000   0.00000   0.00000   0.00000   0.00000   0.00000   0.00000   0.00000
Generated with MDTraj, t= 70.0
 35
    1UNL     O1    1   0.287  -0.228  -0.138
    1UNL     C1    2   0.250  -0.131  -0.073
    1UNL     C2    3   0.345  -0.029  -0.047
    1UNL     C3    4   0.478  -0.047  -0.085
    1UNL     N1    5   0.571   0.045  -0.057
    1UNL     C4    6   0.534   0.164  -0.004
    1UNL     C5    7   0.402   0.195   0.024
    1UNL     C6    8   0.304   0.096   0.012
    1UNL     C7    9   0.163   0.117   0.028
    1UNL     C8   10   0.078   0.013   0.011
    1UNL     N2   11   0.116  -0.111  -0.037
    1UNL     C9   12   0.036  -0.226  -0.065
    1UNL    C10   13  -0.104  -0.222  -0.005
    1UNL    C11   14  -0.148  -0.081   0.021
    1UNL    C12   15  -0.067   0.030   0.015
    1UNL     N3   16  -0.150   0.149   0.042
    1UNL    C13   17  -0.279   0.108   0.061
    1UNL    C14   18  -0.395   0.189   0.044
    1UNL    C15   19  -0.512   0.119   0.045
    1UNL    C16   20  -0.513  -0.018   0.064
    1UNL    C17   21  -0.405  -0.098   0.054
    1UNL    C18   22  -0.281  -0.038   0.057
    1UNL     H1   23   0.512  -0.128  -0.131
    1UNL     H2   24   0.608   0.245   0.001
    1UNL     H3   25   0.375   0.290   0.056
    1UNL     H4   26   0.117   0.218   0.043
    1UNL     H5   27   0.034  -0.219  -0.173
    1UNL     H6   28   0.087  -0.323  -0.028
    1UNL     H7   29  -0.104  -0.278   0.089
    1UNL     H8   30  -0.166  -0.279  -0.074
    1UNL     H9   31  -0.130   0.247   0.024
    1UNL    H10   32  -0.393   0.288   0.019
    1UNL    H11   33  -0.604   0.173   0.013
    1UNL    H12   34  -0.606  -0.068   0.060
    1UNL    H13   35  -0.421  -0.200   0.040
   0.00000   0.00000   0.00000   0.00000   0.00000   0.00000   0.00000   0.00000   0.00000
Generated with MDTraj, t= 71.0
 35
    1UNL     O1    1   0.300  -0.246  -0.132
    1UNL     C1    2   0.262  -0.141  -0.082
    1UNL     C2    3   0.350  -0.027  -0.061
    1UNL     C3    4   0.487  -0.023  -0.082
    1UNL     N1    5   0.576   0.061  -0.031
    1UNL     C4    6   0.518   0.176   0.018
    1UNL     C5    7   0.385   0.192   0.016
    1UNL     C6    8   0.297   0.092  -0.017
    1UNL     C7    9   0.159   0.103   0.021
    1UNL     C8   10   0.076   0.003  -0.010
    1UNL     N2   11   0.126  -0.127  -0.048
    1UNL     C9   12   0.028  -0.228  -0.078
    1UNL    C10   13  -0.094  -0.222   0.019
    1UNL    C11   14  -0.162  -0.087   0.026
    1UNL    C12   15  -0.071   0.018   0.014
    1UNL     N3   16  -0.131   0.142   0.035
    1UNL    C13   17  -0.271   0.111   0.048
    1UNL    C14   18  -0.393   0.186   0.060
    1UNL    C15   19  -0.515   0.130   0.071
    1UNL    C16   20  -0.526  -0.005   0.066
    1UNL    C17   21  -0.417  -0.084   0.044
    1UNL    C18   22  -0.287  -0.024   0.048
    1UNL     H1   23   0.532  -0.125  -0.117
    1UNL     H2   24   0.583   0.254   0.052
    1UNL     H3   25   0.345   0.292   0.049
    1UNL     H4   26   0.132   0.189   0.075
    1UNL     H5   27  -0.006  -0.206  -0.178
    1UNL     H6   28   0.096  -0.321  -0.085
    1UNL     H7   29  -0.053  -0.247   0.120
    1UNL     H8   30  -0.169  -0.297   0.002
    1UNL     H9   31  -0.102   0.234  -0.002
    1UNL    H10   32  -0.380   0.297   0.051
    1UNL    H11   33  -0.603   0.178   0.099
    1UNL    H12   34  -0.627  -0.047   0.080
    1UNL    H13   35  -0.428  -0.193   0.020
   0.00000   0.00000   0.00000   0.00000   0.00000   0.00000   0.00000   0.00000   0.00000
Generated with MDTraj, t= 72.0
 35
    1UNL     O1    1   0.303  -0.251  -0.097
    1UNL     C1    2   0.257  -0.139  -0.068
    1UNL     C2    3   0.348  -0.027  -0.040
    1UNL     C3    4   0.487  -0.044  -0.060
    1UNL     N1    5   0.575   0.049  -0.036
    1UNL     C4    6   0.530   0.172  -0.012
    1UNL     C5    7   0.397   0.198   0.005
    1UNL     C6    8   0.302   0.098  -0.003
    1UNL     C7    9   0.165   0.112   0.018
    1UNL     C8   10   0.073   0.015  -0.012
    1UNL     N2   11   0.121  -0.111  -0.056
    1UNL     C9   12   0.027  -0.223  -0.083
    1UNL    C10   13  -0.111  -0.215  -0.026
    1UNL    C11   14  -0.150  -0.072   0.001
    1UNL    C12   15  -0.073   0.035   0.004
    1UNL     N3   16  -0.151   0.147   0.026
    1UNL    C13   17  -0.281   0.111   0.048
    1UNL    C14   18  -0.396   0.187   0.075
    1UNL    C15   19  -0.511   0.117   0.097
    1UNL    C16   20  -0.519  -0.024   0.075
    1UNL    C17   21  -0.408  -0.096   0.047
    1UNL    C18   22  -0.282  -0.034   0.034
    1UNL     H1   23   0.514  -0.141  -0.073
    1UNL     H2   24   0.605   0.253  -0.005
    1UNL     H3   25   0.359   0.294   0.015
    1UNL     H4   26   0.130   0.208   0.053
    1UNL     H5   27   0.044  -0.256  -0.183
    1UNL     H6   28   0.071  -0.308  -0.022
    1UNL     H7   29  -0.136  -0.273   0.067
    1UNL     H8   30  -0.181  -0.259  -0.097
    1UNL     H9   31  -0.109   0.244   0.035
    1UNL    H10   32  -0.394   0.293   0.079
    1UNL    H11   33  -0.595   0.180   0.134
    1UNL    H12   34  -0.607  -0.069   0.114
    1UNL    H13   35  -0.418  -0.199   0.030
   0.00000   0.00000   0.00000   0.00000   0.00000   0.00000   0.00000   0.00000   0.00000
Generated with MDTraj, t= 73.0
 35
    1UNL     O1    1   0.294  -0.249  -0.055
    1UNL     C1    2   0.254  -0.132  -0.043
    1UNL     C2    3   0.349  -0.024  -0.029
    1UNL     C3    4   0.482  -0.053  -0.039
    1UNL     N1    5   0.573   0.043  -0.041
    1UNL     C4    6   0.525   0.163  -0.020
    1UNL     C5    7   0.392   0.203  -0.006
    1UNL     C6    8   0.299   0.103  -0.007
    1UNL     C7    9   0.156   0.129  -0.016
    1UNL     C8   10   0.067   0.020  -0.026
    1UNL     N2   11   0.120  -0.102  -0.059
    1UNL     C9   12   0.033  -0.215  -0.096
    1UNL    C10   13  -0.113  -0.211  -0.051
    1UNL    C11   14  -0.157  -0.079  -0.009
    1UNL    C12   15  -0.071   0.033  -0.004
    1UNL     N3   16  -0.138   0.140   0.031
    1UNL    C13   17  -0.270   0.103   0.052
    1UNL    C14   18  -0.378   0.174   0.109
    1UNL    C15   19  -0.502   0.112   0.112
    1UNL    C16   20  -0.518  -0.024   0.079
    1UNL    C17   21  -0.409  -0.096   0.032
    1UNL    C18   22  -0.285  -0.033   0.018
    1UNL     H1   23   0.505  -0.166  -0.044
    1UNL     H2   24   0.600   0.237  -0.019
    1UNL     H3   25   0.365   0.308   0.009
    1UNL     H4   26   0.123   0.230   0.001
    1UNL     H5   27   0.018  -0.207  -0.202
    1UNL     H6   28   0.085  -0.315  -0.077
    1UNL     H7   29  -0.125  -0.280   0.037
    1UNL     H8   30  -0.190  -0.240  -0.122
    1UNL     H9   31  -0.087   0.223   0.074
    1UNL    H10   32  -0.361   0.277   0.134
    1UNL    H11   33  -0.585   0.171   0.141
    1UNL    H12   34  -0.615  -0.073   0.085
    1UNL    H13   35  -0.414  -0.206   0.025
   0.00000   0.00000   0.00000   0.00000   0.00000   0.00000   0.00000   0.00000   0.00000
Generated with MDTraj, t= 74.0
 35
    1UNL     O1    1   0.300  -0.265  -0.056
    1UNL     C1    2   0.257  -0.148  -0.043
    1UNL     C2    3   0.348  -0.030  -0.033
    1UNL     C3    4   0.486  -0.043  -0.027
    1UNL     N1    5   0.572   0.059  -0.020
    1UNL     C4    6   0.526   0.181  -0.010
    1UNL     C5    7   0.387   0.207  -0.011
    1UNL     C6    8   0.295   0.102  -0.036
    1UNL     C7    9   0.155   0.117  -0.038
    1UNL     C8   10   0.068   0.012  -0.035
    1UNL     N2   11   0.122  -0.117  -0.050
    1UNL     C9   12   0.031  -0.218  -0.110
    1UNL    C10   13  -0.112  -0.222  -0.047
    1UNL    C11   14  -0.160  -0.075  -0.021
    1UNL    C12   15  -0.069   0.028  -0.004
    1UNL     N3   16  -0.138   0.139   0.052
    1UNL    C13   17  -0.275   0.109   0.042
    1UNL    C14   18  -0.374   0.180   0.115
    1UNL    C15   19  -0.498   0.118   0.131
    1UNL    C16   20  -0.518  -0.014   0.082
    1UNL    C17   21  -0.413  -0.092   0.032
    1UNL    C18   22  -0.289  -0.024   0.006
    1UNL     H1   23   0.525  -0.136  -0.012
    1UNL     H2   24   0.596   0.264   0.022
    1UNL     H3   25   0.352   0.309   0.007
    1UNL     H4   26   0.114   0.215  -0.029
    1UNL     H5   27   0.017  -0.191  -0.213
    1UNL     H6   28   0.075  -0.321  -0.100
    1UNL     H7   29  -0.108  -0.264   0.058
    1UNL     H8   30  -0.182  -0.281  -0.105
    1UNL     H9   31  -0.094   0.236   0.064
    1UNL    H10   32  -0.344   0.277   0.164
    1UNL    H11   33  -0.588   0.174   0.160
    1UNL    H12   34  -0.617  -0.054   0.082
    1UNL    H13   35  -0.418  -0.199   0.016
   0.00000   0.00000   0.00000   0.00000   0.00000   0.00000   0.00000   0.00000   0.00000
Generated with MDTraj, t= 75.0
 35
    1UNL     O1    1   0.292  -0.254  -0.096
    1UNL     C1    2   0.256  -0.138  -0.075
    1UNL     C2    3   0.353  -0.034  -0.037
    1UNL     C3    4   0.491  -0.044  -0.027
    1UNL     N1    5   0.577   0.054  -0.018
    1UNL     C4    6   0.524   0.180  -0.005
    1UNL     C5    7   0.391   0.206   0.011
    1UNL     C6    8   0.304   0.097  -0.018
    1UNL     C7    9   0.161   0.115  -0.019
    1UNL     C8   10   0.072   0.013  -0.033
    1UNL     N2   11   0.119  -0.113  -0.071
    1UNL     C9   12   0.035  -0.235  -0.052
    1UNL    C10   13  -0.117  -0.219  -0.067
    1UNL    C11   14  -0.159  -0.077  -0.015
    1UNL    C12   15  -0.071   0.031  -0.011
    1UNL     N3   16  -0.144   0.149   0.023
    1UNL    C13   17  -0.274   0.112   0.055
    1UNL    C14   18  -0.387   0.176   0.091
    1UNL    C15   19  -0.510   0.122   0.109
    1UNL    C16   20  -0.519  -0.024   0.095
    1UNL    C17   21  -0.405  -0.088   0.058
    1UNL    C18   22  -0.285  -0.026   0.035
    1UNL     H1   23   0.540  -0.148  -0.019
    1UNL     H2   24   0.588   0.261   0.006
    1UNL     H3   25   0.355   0.302   0.030
    1UNL     H4   26   0.119   0.216  -0.011
    1UNL     H5   27   0.076  -0.314  -0.113
    1UNL     H6   28   0.052  -0.254   0.057
    1UNL     H7   29  -0.171  -0.307  -0.022
    1UNL     H8   30  -0.140  -0.208  -0.173
    1UNL     H9   31  -0.113   0.247   0.045
    1UNL    H10   32  -0.383   0.278   0.108
    1UNL    H11   33  -0.593   0.188   0.124
    1UNL    H12   34  -0.611  -0.076   0.119
    1UNL    H13   35  -0.405  -0.192   0.040
   0.00000   0.00000   0.00000   0.00000   0.00000   0.00000   0.00000   0.00000   0.00000
Generated with MDTraj, t= 76.0
 35
    1UNL     O1    1   0.285  -0.249  -0.103
    1UNL     C1    2   0.257  -0.132  -0.073
    1UNL     C2    3   0.346  -0.016  -0.077
    1UNL     C3    4   0.486  -0.039  -0.074
    1UNL     N1    5   0.575   0.045  -0.036
    1UNL     C4    6   0.529   0.163   0.016
    1UNL     C5    7   0.398   0.197   0.021
    1UNL     C6    8   0.296   0.107  -0.022
    1UNL     C7    9   0.153   0.121   0.003
    1UNL     C8   10   0.074   0.015  -0.008
    1UNL     N2   11   0.125  -0.111  -0.031
    1UNL     C9   12   0.035  -0.231  -0.011
    1UNL    C10   13  -0.108  -0.216  -0.050
    1UNL    C11   14  -0.159  -0.080  -0.015
    1UNL    C12   15  -0.074   0.030  -0.002
    1UNL     N3   16  -0.143   0.147   0.019
    1UNL    C13   17  -0.272   0.109   0.043
    1UNL    C14   18  -0.384   0.181   0.088
    1UNL    C15   19  -0.503   0.116   0.108
    1UNL    C16   20  -0.514  -0.021   0.080
    1UNL    C17   21  -0.414  -0.100   0.026
    1UNL    C18   22  -0.288  -0.029   0.019
    1UNL     H1   23   0.521  -0.132  -0.096
    1UNL     H2   24   0.608   0.241   0.034
    1UNL     H3   25   0.368   0.292   0.072
    1UNL     H4   26   0.126   0.212   0.050
    1UNL     H5   27   0.083  -0.302  -0.076
    1UNL     H6   28   0.047  -0.262   0.095
    1UNL     H7   29  -0.171  -0.280   0.018
    1UNL     H8   30  -0.126  -0.246  -0.154
    1UNL     H9   31  -0.106   0.241   0.040
    1UNL    H10   32  -0.362   0.291   0.096
    1UNL    H11   33  -0.575   0.167   0.173
    1UNL    H12   34  -0.608  -0.068   0.101
    1UNL    H13   35  -0.412  -0.209  -0.002
   0.00000   0.00000   0.00000   0.00000   0.00000   0.00000   0.00000   0.00000   0.00000
Generated with MDTraj, t= 77.0
 35
    1UNL     O1    1   0.295  -0.245  -0.105
    1UNL     C1    2   0.258  -0.137  -0.060
    1UNL     C2    3   0.354  -0.027  -0.053
    1UNL     C3    4   0.489  -0.038  -0.071
    1UNL     N1    5   0.575   0.056  -0.064
    1UNL     C4    6   0.523   0.176  -0.036
    1UNL     C5    7   0.394   0.200   0.001
    1UNL     C6    8   0.305   0.095  -0.003
    1UNL     C7    9   0.169   0.109   0.031
    1UNL     C8   10   0.077   0.014   0.006
    1UNL     N2   11   0.125  -0.116  -0.022
    1UNL     C9   12   0.029  -0.239  -0.028
    1UNL    C10   13  -0.115  -0.208  -0.047
    1UNL    C11   14  -0.153  -0.071  -0.001
    1UNL    C12   15  -0.068   0.034   0.018
    1UNL     N3   16  -0.143   0.140   0.065
    1UNL    C13   17  -0.275   0.100   0.065
    1UNL    C14   18  -0.388   0.179   0.087
    1UNL    C15   19  -0.514   0.122   0.077
    1UNL    C16   20  -0.526  -0.011   0.036
    1UNL    C17   21  -0.416  -0.093   0.018
    1UNL    C18   22  -0.289  -0.037   0.025
    1UNL     H1   23   0.522  -0.144  -0.097
    1UNL     H2   24   0.596   0.257  -0.048
    1UNL     H3   25   0.362   0.297   0.019
    1UNL     H4   26   0.132   0.201   0.077
    1UNL     H5   27   0.068  -0.302  -0.106
    1UNL     H6   28   0.048  -0.289   0.067
    1UNL     H7   29  -0.173  -0.285   0.008
    1UNL     H8   30  -0.150  -0.220  -0.151
    1UNL     H9   31  -0.114   0.236   0.057
    1UNL    H10   32  -0.383   0.281   0.115
    1UNL    H11   33  -0.605   0.179   0.099
    1UNL    H12   34  -0.624  -0.057   0.031
    1UNL    H13   35  -0.425  -0.191  -0.015
   0.00000   0.00000   0.00000   0.00000   0.00000   0.00000   0.00000   0.00000   0.00000
Generated with MDTraj, t= 78.0
 35
    1UNL     O1    1   0.312  -0.261  -0.070
    1UNL     C1    2   0.261  -0.148  -0.049
    1UNL     C2    3   0.347  -0.026  -0.044
    1UNL     C3    4   0.477  -0.027  -0.089
    1UNL     N1    5   0.562   0.076  -0.087
    1UNL     C4    6   0.509   0.189  -0.055
    1UNL     C5    7   0.381   0.205  -0.012
    1UNL     C6    8   0.292   0.094  -0.008
    1UNL     C7    9   0.155   0.103   0.027
    1UNL     C8   10   0.076  -0.006   0.024
    1UNL     N2   11   0.127  -0.124  -0.027
    1UNL     C9   12   0.035  -0.240  -0.033
    1UNL    C10   13  -0.115  -0.208  -0.068
    1UNL    C11   14  -0.155  -0.082   0.006
    1UNL    C12   15  -0.065   0.011   0.048
    1UNL     N3   16  -0.134   0.113   0.108
    1UNL    C13   17  -0.271   0.098   0.097
    1UNL    C14   18  -0.381   0.187   0.099
    1UNL    C15   19  -0.501   0.140   0.046
    1UNL    C16   20  -0.519   0.006   0.004
    1UNL    C17   21  -0.410  -0.073  -0.004
    1UNL    C18   22  -0.283  -0.025   0.035
    1UNL     H1   23   0.511  -0.115  -0.128
    1UNL     H2   24   0.576   0.270  -0.049
    1UNL     H3   25   0.345   0.309   0.002
    1UNL     H4   26   0.115   0.200   0.034
    1UNL     H5   27   0.082  -0.316  -0.092
    1UNL     H6   28   0.028  -0.276   0.070
    1UNL     H7   29  -0.185  -0.294  -0.056
    1UNL     H8   30  -0.109  -0.186  -0.177
    1UNL     H9   31  -0.082   0.186   0.148
    1UNL    H10   32  -0.378   0.292   0.129
    1UNL    H11   33  -0.583   0.202   0.024
    1UNL    H12   34  -0.604  -0.032  -0.051
    1UNL    H13   35  -0.426  -0.170  -0.057
   0.00000   0.00000   0.00000   0.00000   0.00000   0.00000   0.00000   0.00000   0.00000
Generated with MDTraj, t= 79.0
 35
    1UNL     O1    1   0.318  -0.245  -0.079
    1UNL     C1    2   0.259  -0.146  -0.035
    1UNL     C2    3   0.347  -0.028  -0.034
    1UNL     C3    4   0.467  -0.029  -0.097
    1UNL     N1    5   0.544   0.074  -0.111
    1UNL     C4    6   0.507   0.191  -0.061
    1UNL     C5    7   0.375   0.208  -0.025
    1UNL     C6    8   0.293   0.099  -0.003
    1UNL     C7    9   0.155   0.101   0.038
    1UNL     C8   10   0.076  -0.014   0.038
    1UNL     N2   11   0.124  -0.137  -0.002
    1UNL     C9   12   0.044  -0.257  -0.010
    1UNL    C10   13  -0.104  -0.216  -0.054
    1UNL    C11   14  -0.153  -0.078  -0.003
    1UNL    C12   15  -0.060   0.005   0.060
    1UNL     N3   16  -0.134   0.116   0.113
    1UNL    C13   17  -0.266   0.104   0.076
    1UNL    C14   18  -0.384   0.175   0.113
    1UNL    C15   19  -0.505   0.132   0.071
    1UNL    C16   20  -0.516   0.022  -0.008
    1UNL    C17   21  -0.409  -0.054  -0.049
    1UNL    C18   22  -0.279  -0.014  -0.004
    1UNL     H1   23   0.500  -0.125  -0.149
    1UNL     H2   24   0.592   0.272  -0.060
    1UNL     H3   25   0.339   0.301   0.012
    1UNL     H4   26   0.117   0.200   0.060
    1UNL     H5   27   0.086  -0.322  -0.084
    1UNL     H6   28   0.045  -0.309   0.085
    1UNL     H7   29  -0.170  -0.294  -0.010
    1UNL     H8   30  -0.116  -0.225  -0.166
    1UNL     H9   31  -0.090   0.169   0.183
    1UNL    H10   32  -0.378   0.257   0.186
    1UNL    H11   33  -0.603   0.178   0.099
    1UNL    H12   34  -0.613   0.014  -0.057
    1UNL    H13   35  -0.417  -0.143  -0.107
   0.00000   0.00000   0.00000   0.00000   0.00000   0.00000   0.00000   0.00000   0.00000
Generated with MDTraj, t= 80.0
 35
    1UNL     O1    1   0.302  -0.250  -0.091
    1UNL     C1    2   0.258  -0.142  -0.042
    1UNL     C2    3   0.346  -0.027  -0.036
    1UNL     C3    4   0.466  -0.036  -0.103
    1UNL     N1    5   0.552   0.058  -0.116
    1UNL     C4    6   0.515   0.174  -0.068
    1UNL     C5    7   0.394   0.199  -0.013
    1UNL     C6    8   0.303   0.092   0.015
    1UNL     C7    9   0.167   0.114   0.053
    1UNL     C8   10   0.081   0.005   0.038
    1UNL     N2   11   0.131  -0.118   0.003
    1UNL     C9   12   0.032  -0.228  -0.007
    1UNL    C10   13  -0.098  -0.185  -0.078
    1UNL    C11   14  -0.152  -0.074   0.002
    1UNL    C12   15  -0.065   0.014   0.058
    1UNL     N3   16  -0.140   0.123   0.106
    1UNL    C13   17  -0.278   0.099   0.084
    1UNL    C14   18  -0.394   0.171   0.101
    1UNL    C15   19  -0.508   0.124   0.056
    1UNL    C16   20  -0.512  -0.001  -0.011
    1UNL    C17   21  -0.409  -0.085  -0.023
    1UNL    C18   22  -0.287  -0.027   0.017
    1UNL     H1   23   0.486  -0.126  -0.149
    1UNL     H2   24   0.566   0.258  -0.075
    1UNL     H3   25   0.373   0.299   0.022
    1UNL     H4   26   0.137   0.214   0.080
    1UNL     H5   27   0.073  -0.305  -0.072
    1UNL     H6   28   0.016  -0.274   0.091
    1UNL     H7   29  -0.165  -0.272  -0.081
    1UNL     H8   30  -0.078  -0.153  -0.186
    1UNL     H9   31  -0.102   0.210   0.133
    1UNL    H10   32  -0.396   0.244   0.176
    1UNL    H11   33  -0.597   0.170   0.083
    1UNL    H12   34  -0.610  -0.038  -0.033
    1UNL    H13   35  -0.422  -0.180  -0.071
   0.00000   0.00000   0.00000   0.00000   0.00000   0.00000   0.00000   0.00000   0.00000
Generated with MDTraj, t= 81.0
 35
    1UNL     O1    1   0.300  -0.252  -0.082
    1UNL     C1    2   0.252  -0.138  -0.070
    1UNL     C2    3   0.349  -0.028  -0.058
    1UNL     C3    4   0.483  -0.032  -0.094
    1UNL     N1    5   0.569   0.058  -0.078
    1UNL     C4    6   0.516   0.178  -0.034
    1UNL     C5    7   0.387   0.198   0.003
    1UNL     C6    8   0.298   0.094  -0.001
    1UNL     C7    9   0.164   0.107   0.038
    1UNL     C8   10   0.079   0.004   0.020
    1UNL     N2   11   0.120  -0.114  -0.038
    1UNL     C9   12   0.030  -0.235  -0.022
    1UNL    C10   13  -0.111  -0.205  -0.044
    1UNL    C11   14  -0.150  -0.072   0.003
    1UNL    C12   15  -0.059   0.024   0.044
    1UNL     N3   16  -0.139   0.139   0.075
    1UNL    C13   17  -0.273   0.101   0.074
    1UNL    C14   18  -0.387   0.174   0.101
    1UNL    C15   19  -0.507   0.117   0.072
    1UNL    C16   20  -0.524  -0.008   0.022
    1UNL    C17   21  -0.411  -0.079  -0.012
    1UNL    C18   22  -0.283  -0.026   0.019
    1UNL     H1   23   0.524  -0.125  -0.144
    1UNL     H2   24   0.599   0.262  -0.029
    1UNL     H3   25   0.350   0.297   0.028
    1UNL     H4   26   0.131   0.206   0.057
    1UNL     H5   27   0.078  -0.312  -0.083
    1UNL     H6   28   0.044  -0.273   0.078
    1UNL     H7   29  -0.184  -0.278  -0.007
    1UNL     H8   30  -0.125  -0.209  -0.157
    1UNL     H9   31  -0.112   0.237   0.088
    1UNL    H10   32  -0.382   0.275   0.149
    1UNL    H11   33  -0.595   0.162   0.123
    1UNL    H12   34  -0.621  -0.053   0.008
    1UNL    H13   35  -0.420  -0.174  -0.069
   0.00000   0.00000   0.00000   0.00000   0.00000   0.00000   0.00000   0.00000   0.00000
Generated with MDTraj, t= 82.0
 35
    1UNL     O1    1   0.300  -0.251  -0.115
    1UNL     C1    2   0.260  -0.142  -0.067
    1UNL     C2    3   0.356  -0.026  -0.049
    1UNL     C3    4   0.495  -0.035  -0.045
    1UNL     N1    5   0.576   0.066  -0.033
    1UNL     C4    6   0.519   0.185  -0.000
    1UNL     C5    7   0.387   0.210   0.002
    1UNL     C6    8   0.295   0.101  -0.029
    1UNL     C7    9   0.151   0.115  -0.005
    1UNL     C8   10   0.069   0.007  -0.019
    1UNL     N2   11   0.127  -0.122  -0.035
    1UNL     C9   12   0.039  -0.250  -0.035
    1UNL    C10   13  -0.117  -0.226  -0.054
    1UNL    C11   14  -0.163  -0.089  -0.007
    1UNL    C12   15  -0.075   0.015   0.002
    1UNL     N3   16  -0.137   0.128   0.043
    1UNL    C13   17  -0.271   0.106   0.057
    1UNL    C14   18  -0.376   0.194   0.088
    1UNL    C15   19  -0.504   0.135   0.103
    1UNL    C16   20  -0.521   0.001   0.075
    1UNL    C17   21  -0.421  -0.086   0.034
    1UNL    C18   22  -0.292  -0.031   0.025
    1UNL     H1   23   0.536  -0.123  -0.082
    1UNL     H2   24   0.584   0.257   0.025
    1UNL     H3   25   0.349   0.303   0.037
    1UNL     H4   26   0.117   0.212   0.029
    1UNL     H5   27   0.081  -0.322  -0.106
    1UNL     H6   28   0.067  -0.296   0.059
    1UNL     H7   29  -0.167  -0.313  -0.013
    1UNL     H8   30  -0.146  -0.229  -0.164
    1UNL     H9   31  -0.090   0.217   0.073
    1UNL    H10   32  -0.362   0.297   0.095
    1UNL    H11   33  -0.589   0.191   0.129
    1UNL    H12   34  -0.625  -0.035   0.069
    1UNL    H13   35  -0.442  -0.180  -0.006
   0.00000   0.00000   0.00000   0.00000   0.00000   0.00000   0.00000   0.00000   0.00000
Generated with MDTraj, t= 83.0
 35
    1UNL     O1    1   0.284  -0.253  -0.083
    1UNL     C1    2   0.249  -0.134  -0.061
    1UNL     C2    3   0.353  -0.024  -0.042
    1UNL     C3    4   0.486  -0.051  -0.025
    1UNL     N1    5   0.576   0.047  -0.009
    1UNL     C4    6   0.529   0.169   0.005
    1UNL     C5    7   0.398   0.206   0.007
    1UNL     C6    8   0.301   0.109  -0.027
    1UNL     C7    9   0.160   0.127  -0.041
    1UNL     C8   10   0.071   0.022  -0.044
    1UNL     N2   11   0.115  -0.109  -0.058
    1UNL     C9   12   0.039  -0.241  -0.063
    1UNL    C10   13  -0.119  -0.218  -0.059
    1UNL    C11   14  -0.156  -0.074  -0.017
    1UNL    C12   15  -0.078   0.039  -0.026
    1UNL     N3   16  -0.141   0.150   0.025
    1UNL    C13   17  -0.270   0.110   0.054
    1UNL    C14   18  -0.387   0.179   0.084
    1UNL    C15   19  -0.505   0.115   0.121
    1UNL    C16   20  -0.515  -0.029   0.103
    1UNL    C17   21  -0.403  -0.099   0.063
    1UNL    C18   22  -0.283  -0.033   0.031
    1UNL     H1   23   0.527  -0.148  -0.063
    1UNL     H2   24   0.613   0.251   0.012
    1UNL     H3   25   0.367   0.309   0.030
    1UNL     H4   26   0.124   0.226  -0.033
    1UNL     H5   27   0.069  -0.276  -0.165
    1UNL     H6   28   0.068  -0.318   0.008
    1UNL     H7   29  -0.166  -0.285   0.013
    1UNL     H8   30  -0.152  -0.249  -0.163
    1UNL     H9   31  -0.098   0.248   0.020
    1UNL    H10   32  -0.392   0.289   0.095
    1UNL    H11   33  -0.596   0.177   0.133
    1UNL    H12   34  -0.609  -0.078   0.102
    1UNL    H13   35  -0.410  -0.209   0.044
   0.00000   0.00000   0.00000   0.00000   0.00000   0.00000   0.00000   0.00000   0.00000
Generated with MDTraj, t= 84.0
 35
    1UNL     O1    1   0.286  -0.265  -0.044
    1UNL     C1    2   0.257  -0.144  -0.060
    1UNL     C2    3   0.352  -0.029  -0.034
    1UNL     C3    4   0.483  -0.046  -0.022
    1UNL     N1    5   0.571   0.050  -0.007
    1UNL     C4    6   0.523   0.177  -0.008
    1UNL     C5    7   0.389   0.207  -0.005
    1UNL     C6    8   0.299   0.104  -0.024
    1UNL     C7    9   0.159   0.127  -0.023
    1UNL     C8   10   0.072   0.020  -0.036
    1UNL     N2   11   0.118  -0.114  -0.061
    1UNL     C9   12   0.023  -0.218  -0.105
    1UNL    C10   13  -0.116  -0.219  -0.042
    1UNL    C11   14  -0.162  -0.073  -0.033
    1UNL    C12   15  -0.071   0.036  -0.023
    1UNL     N3   16  -0.149   0.149   0.014
    1UNL    C13   17  -0.272   0.109   0.041
    1UNL    C14   18  -0.376   0.181   0.102
    1UNL    C15   19  -0.489   0.110   0.134
    1UNL    C16   20  -0.501  -0.033   0.116
    1UNL    C17   21  -0.405  -0.097   0.039
    1UNL    C18   22  -0.287  -0.022   0.001
    1UNL     H1   23   0.519  -0.148  -0.028
    1UNL     H2   24   0.593   0.249  -0.016
    1UNL     H3   25   0.362   0.311  -0.006
    1UNL     H4   26   0.124   0.228  -0.004
    1UNL     H5   27   0.013  -0.214  -0.216
    1UNL     H6   28   0.082  -0.307  -0.077
    1UNL     H7   29  -0.118  -0.275   0.053
    1UNL     H8   30  -0.193  -0.262  -0.112
    1UNL     H9   31  -0.105   0.244   0.030
    1UNL    H10   32  -0.360   0.284   0.129
    1UNL    H11   33  -0.568   0.154   0.188
    1UNL    H12   34  -0.590  -0.090   0.148
    1UNL    H13   35  -0.394  -0.202   0.038
   0.00000   0.00000   0.00000   0.00000   0.00000   0.00000   0.00000   0.00000   0.00000
Generated with MDTraj, t= 85.0
 35
    1UNL     O1    1   0.304  -0.251  -0.056
    1UNL     C1    2   0.257  -0.136  -0.058
    1UNL     C2    3   0.351  -0.025  -0.029
    1UNL     C3    4   0.492  -0.044  -0.019
    1UNL     N1    5   0.575   0.053  -0.019
    1UNL     C4    6   0.520   0.174  -0.005
    1UNL     C5    7   0.386   0.200  -0.008
    1UNL     C6    8   0.292   0.098  -0.024
    1UNL     C7    9   0.156   0.118  -0.014
    1UNL     C8   10   0.070   0.014  -0.045
    1UNL     N2   11   0.121  -0.109  -0.069
    1UNL     C9   12   0.027  -0.229  -0.099
    1UNL    C10   13  -0.118  -0.217  -0.056
    1UNL    C11   14  -0.161  -0.079  -0.014
    1UNL    C12   15  -0.075   0.031  -0.022
    1UNL     N3   16  -0.141   0.145   0.010
    1UNL    C13   17  -0.270   0.104   0.047
    1UNL    C14   18  -0.373   0.181   0.103
    1UNL    C15   19  -0.496   0.125   0.126
    1UNL    C16   20  -0.519  -0.015   0.090
    1UNL    C17   21  -0.411  -0.096   0.057
    1UNL    C18   22  -0.288  -0.034   0.030
    1UNL     H1   23   0.534  -0.143  -0.021
    1UNL     H2   24   0.582   0.271   0.005
    1UNL     H3   25   0.347   0.298   0.014
    1UNL     H4   26   0.118   0.199   0.046
    1UNL     H5   27   0.037  -0.234  -0.212
    1UNL     H6   28   0.070  -0.325  -0.066
    1UNL     H7   29  -0.142  -0.279   0.033
    1UNL     H8   30  -0.183  -0.259  -0.136
    1UNL     H9   31  -0.099   0.240   0.032
    1UNL    H10   32  -0.348   0.280   0.136
    1UNL    H11   33  -0.573   0.175   0.186
    1UNL    H12   34  -0.613  -0.056   0.112
    1UNL    H13   35  -0.418  -0.204   0.038
   0.00000   0.00000   0.00000   0.00000   0.00000   0.00000   0.00000   0.00000   0.00000
Generated with MDTraj, t= 86.0
 35
    1UNL     O1    1   0.306  -0.246  -0.103
    1UNL     C1    2   0.259  -0.138  -0.074
    1UNL     C2    3   0.347  -0.029  -0.055
    1UNL     C3    4   0.482  -0.043  -0.050
    1UNL     N1    5   0.573   0.043  -0.021
    1UNL     C4    6   0.525   0.171   0.004
    1UNL     C5    7   0.391   0.199   0.006
    1UNL     C6    8   0.295   0.099  -0.024
    1UNL     C7    9   0.153   0.124  -0.024
    1UNL     C8   10   0.071   0.012  -0.016
    1UNL     N2   11   0.122  -0.115  -0.049
    1UNL     C9   12   0.037  -0.238  -0.038
    1UNL    C10   13  -0.112  -0.212  -0.048
    1UNL    C11   14  -0.156  -0.075   0.000
    1UNL    C12   15  -0.068   0.032   0.001
    1UNL     N3   16  -0.144   0.147   0.027
    1UNL    C13   17  -0.277   0.114   0.052
    1UNL    C14   18  -0.389   0.187   0.091
    1UNL    C15   19  -0.512   0.121   0.098
    1UNL    C16   20  -0.514  -0.021   0.071
    1UNL    C17   21  -0.403  -0.098   0.050
    1UNL    C18   22  -0.285  -0.030   0.036
    1UNL     H1   23   0.517  -0.146  -0.078
    1UNL     H2   24   0.589   0.240   0.041
    1UNL     H3   25   0.358   0.299   0.035
    1UNL     H4   26   0.118   0.224   0.001
    1UNL     H5   27   0.061  -0.305  -0.128
    1UNL     H6   28   0.080  -0.292   0.049
    1UNL     H7   29  -0.169  -0.293   0.001
    1UNL     H8   30  -0.145  -0.215  -0.154
    1UNL     H9   31  -0.103   0.230   0.074
    1UNL    H10   32  -0.377   0.296   0.107
    1UNL    H11   33  -0.594   0.179   0.131
    1UNL    H12   34  -0.609  -0.079   0.074
    1UNL    H13   35  -0.412  -0.199   0.013
   0.00000   0.00000   0.00000   0.00000   0.00000   0.00000   0.00000   0.00000   0.00000
Generated with MDTraj, t= 87.0
 35
    1UNL     O1    1   0.300  -0.242  -0.122
    1UNL     C1    2   0.251  -0.140  -0.074
    1UNL     C2    3   0.343  -0.023  -0.053
    1UNL     C3    4   0.475  -0.041  -0.079
    1UNL     N1    5   0.570   0.049  -0.056
    1UNL     C4    6   0.527   0.172  -0.022
    1UNL     C5    7   0.397   0.204   0.015
    1UNL     C6    8   0.300   0.100  -0.003
    1UNL     C7    9   0.160   0.115   0.010
    1UNL     C8   10   0.077   0.009   0.002
    1UNL     N2   11   0.125  -0.118  -0.025
    1UNL     C9   12   0.047  -0.240  -0.003
    1UNL    C10   13  -0.103  -0.214  -0.029
    1UNL    C11   14  -0.154  -0.077  -0.005
    1UNL    C12   15  -0.065   0.023   0.023
    1UNL     N3   16  -0.137   0.133   0.064
    1UNL    C13   17  -0.278   0.112   0.048
    1UNL    C14   18  -0.394   0.182   0.086
    1UNL    C15   19  -0.518   0.120   0.077
    1UNL    C16   20  -0.528  -0.016   0.058
    1UNL    C17   21  -0.413  -0.084   0.014
    1UNL    C18   22  -0.286  -0.017   0.008
    1UNL     H1   23   0.510  -0.131  -0.116
    1UNL     H2   24   0.613   0.238   0.016
    1UNL     H3   25   0.363   0.302   0.036
    1UNL     H4   26   0.127   0.215   0.029
    1UNL     H5   27   0.099  -0.323  -0.064
    1UNL     H6   28   0.049  -0.272   0.103
    1UNL     H7   29  -0.168  -0.293   0.015
    1UNL     H8   30  -0.108  -0.227  -0.138
    1UNL     H9   31  -0.090   0.223   0.076
    1UNL    H10   32  -0.382   0.281   0.116
    1UNL    H11   33  -0.608   0.179   0.100
    1UNL    H12   34  -0.621  -0.064   0.048
    1UNL    H13   35  -0.411  -0.185  -0.015
   0.00000   0.00000   0.00000   0.00000   0.00000   0.00000   0.00000   0.00000   0.00000
Generated with MDTraj, t= 88.0
 35
    1UNL     O1    1   0.307  -0.251  -0.087
    1UNL     C1    2   0.261  -0.145  -0.050
    1UNL     C2    3   0.351  -0.029  -0.039
    1UNL     C3    4   0.475  -0.036  -0.097
    1UNL     N1    5   0.558   0.069  -0.113
    1UNL     C4    6   0.516   0.180  -0.053
    1UNL     C5    7   0.395   0.195   0.003
    1UNL     C6    8   0.302   0.092   0.011
    1UNL     C7    9   0.164   0.103   0.051
    1UNL     C8   10   0.072   0.007   0.020
    1UNL     N2   11   0.127  -0.118  -0.022
    1UNL     C9   12   0.040  -0.238  -0.018
    1UNL    C10   13  -0.107  -0.205  -0.056
    1UNL    C11   14  -0.151  -0.075   0.006
    1UNL    C12   15  -0.067   0.024   0.043
    1UNL     N3   16  -0.143   0.130   0.099
    1UNL    C13   17  -0.278   0.104   0.078
    1UNL    C14   18  -0.389   0.186   0.079
    1UNL    C15   19  -0.513   0.130   0.056
    1UNL    C16   20  -0.520  -0.004   0.009
    1UNL    C17   21  -0.412  -0.084  -0.004
    1UNL    C18   22  -0.286  -0.032   0.028
    1UNL     H1   23   0.502  -0.142  -0.133
    1UNL     H2   24   0.586   0.257  -0.048
    1UNL     H3   25   0.374   0.290   0.056
    1UNL     H4   26   0.131   0.194   0.095
    1UNL     H5   27   0.069  -0.316  -0.097
    1UNL     H6   28   0.052  -0.286   0.081
    1UNL     H7   29  -0.170  -0.291  -0.021
    1UNL     H8   30  -0.115  -0.211  -0.164
    1UNL     H9   31  -0.118   0.226   0.114
    1UNL    H10   32  -0.389   0.289   0.121
    1UNL    H11   33  -0.602   0.188   0.053
    1UNL    H12   34  -0.621  -0.036  -0.020
    1UNL    H13   35  -0.421  -0.187  -0.044
   0.00000   0.00000   0.00000   0.00000   0.00000   0.00000   0.00000   0.00000   0.00000
Generated with MDTraj, t= 89.0
 35
    1UNL     O1    1   0.306  -0.255  -0.075
    1UNL     C1    2   0.265  -0.146  -0.040
    1UNL     C2    3   0.344  -0.025  -0.050
    1UNL     C3    4   0.471  -0.031  -0.104
    1UNL     N1    5   0.547   0.076  -0.104
    1UNL     C4    6   0.494   0.189  -0.056
    1UNL     C5    7   0.361   0.205  -0.024
    1UNL     C6    8   0.286   0.091  -0.009
    1UNL     C7    9   0.154   0.104   0.042
    1UNL     C8   10   0.081  -0.010   0.053
    1UNL     N2   11   0.133  -0.130   0.007
    1UNL     C9   12   0.038  -0.243  -0.014
    1UNL    C10   13  -0.106  -0.206  -0.066
    1UNL    C11   14  -0.155  -0.087   0.008
    1UNL    C12   15  -0.064   0.005   0.065
    1UNL     N3   16  -0.128   0.124   0.099
    1UNL    C13   17  -0.262   0.093   0.089
    1UNL    C14   18  -0.374   0.181   0.098
    1UNL    C15   19  -0.495   0.137   0.060
    1UNL    C16   20  -0.507   0.020  -0.012
    1UNL    C17   21  -0.406  -0.059  -0.045
    1UNL    C18   22  -0.279  -0.029   0.020
    1UNL     H1   23   0.509  -0.121  -0.131
    1UNL     H2   24   0.559   0.274  -0.086
    1UNL     H3   25   0.315   0.290   0.020
    1UNL     H4   26   0.107   0.202   0.053
    1UNL     H5   27   0.102  -0.307  -0.083
    1UNL     H6   28   0.022  -0.300   0.079
    1UNL     H7   29  -0.172  -0.293  -0.039
    1UNL     H8   30  -0.116  -0.197  -0.173
    1UNL     H9   31  -0.093   0.177   0.174
    1UNL    H10   32  -0.359   0.276   0.139
    1UNL    H11   33  -0.584   0.197   0.081
    1UNL    H12   34  -0.602  -0.014  -0.046
    1UNL    H13   35  -0.422  -0.147  -0.099
   0.00000   0.00000   0.00000   0.00000   0.00000   0.00000   0.00000   0.00000   0.00000
Generated with MDTraj, t= 90.0
 35
    1UNL     O1    1   0.299  -0.260  -0.075
    1UNL     C1    2   0.261  -0.150  -0.041
    1UNL     C2    3   0.345  -0.029  -0.043
    1UNL     C3    4   0.479  -0.033  -0.093
    1UNL     N1    5   0.560   0.073  -0.098
    1UNL     C4    6   0.505   0.194  -0.074
    1UNL     C5    7   0.379   0.216  -0.029
    1UNL     C6    8   0.295   0.102  -0.005
    1UNL     C7    9   0.164   0.106   0.043
    1UNL     C8   10   0.078  -0.002   0.032
    1UNL     N2   11   0.129  -0.126   0.001
    1UNL     C9   12   0.042  -0.242  -0.015
    1UNL    C10   13  -0.100  -0.213  -0.055
    1UNL    C11   14  -0.152  -0.084   0.008
    1UNL    C12   15  -0.066   0.014   0.059
    1UNL     N3   16  -0.141   0.111   0.120
    1UNL    C13   17  -0.275   0.080   0.092
    1UNL    C14   18  -0.380   0.168   0.118
    1UNL    C15   19  -0.495   0.142   0.054
    1UNL    C16   20  -0.519   0.032  -0.024
    1UNL    C17   21  -0.417  -0.059  -0.040
    1UNL    C18   22  -0.288  -0.038   0.014
    1UNL     H1   23   0.521  -0.135  -0.125
    1UNL     H2   24   0.555   0.287  -0.105
    1UNL     H3   25   0.340   0.319  -0.037
    1UNL     H4   26   0.121   0.201   0.058
    1UNL     H5   27   0.097  -0.312  -0.087
    1UNL     H6   28   0.056  -0.279   0.087
    1UNL     H7   29  -0.171  -0.298  -0.035
    1UNL     H8   30  -0.102  -0.201  -0.162
    1UNL     H9   31  -0.109   0.203   0.112
    1UNL    H10   32  -0.365   0.264   0.166
    1UNL    H11   33  -0.582   0.201   0.075
    1UNL    H12   34  -0.619   0.029  -0.068
    1UNL    H13   35  -0.430  -0.149  -0.103
   0.00000   0.00000   0.00000   0.00000   0.00000   0.00000   0.00000   0.00000   0.00000
Generated with MDTraj, t= 91.0
 35
    1UNL     O1    1   0.280  -0.263  -0.071
    1UNL     C1    2   0.263  -0.146  -0.042
    1UNL     C2    3   0.348  -0.027  -0.054
    1UNL     C3    4   0.481  -0.035  -0.095
    1UNL     N1    5   0.564   0.064  -0.094
    1UNL     C4    6   0.520   0.183  -0.048
    1UNL     C5    7   0.389   0.205  -0.006
    1UNL     C6    8   0.301   0.094  -0.010
    1UNL     C7    9   0.168   0.110   0.041
    1UNL     C8   10   0.077   0.008   0.028
    1UNL     N2   11   0.125  -0.113  -0.017
    1UNL     C9   12   0.039  -0.235  -0.026
    1UNL    C10   13  -0.102  -0.201  -0.072
    1UNL    C11   14  -0.150  -0.079   0.003
    1UNL    C12   15  -0.066   0.019   0.049
    1UNL     N3   16  -0.138   0.131   0.096
    1UNL    C13   17  -0.272   0.107   0.071
    1UNL    C14   18  -0.393   0.175   0.095
    1UNL    C15   19  -0.517   0.122   0.060
    1UNL    C16   20  -0.519  -0.009   0.017
    1UNL    C17   21  -0.407  -0.081  -0.003
    1UNL    C18   22  -0.281  -0.025   0.017
    1UNL     H1   23   0.519  -0.118  -0.144
    1UNL     H2   24   0.591   0.263  -0.046
    1UNL     H3   25   0.344   0.298   0.013
    1UNL     H4   26   0.125   0.208   0.067
    1UNL     H5   27   0.099  -0.305  -0.090
    1UNL     H6   28   0.047  -0.266   0.077
    1UNL     H7   29  -0.175  -0.286  -0.065
    1UNL     H8   30  -0.104  -0.169  -0.175
    1UNL     H9   31  -0.098   0.201   0.151
    1UNL    H10   32  -0.388   0.279   0.132
    1UNL    H11   33  -0.607   0.181   0.064
    1UNL    H12   34  -0.614  -0.058  -0.002
    1UNL    H13   35  -0.429  -0.171  -0.055
   0.00000   0.00000   0.00000   0.00000   0.00000   0.00000   0.00000   0.00000   0.00000
Generated with MDTraj, t= 92.0
 35
    1UNL     O1    1   0.285  -0.252  -0.097
    1UNL     C1    2   0.260  -0.140  -0.057
    1UNL     C2    3   0.350  -0.030  -0.043
    1UNL     C3    4   0.487  -0.039  -0.068
    1UNL     N1    5   0.572   0.065  -0.069
    1UNL     C4    6   0.523   0.178  -0.016
    1UNL     C5    7   0.393   0.195   0.015
    1UNL     C6    8   0.301   0.094  -0.003
    1UNL     C7    9   0.159   0.113   0.011
    1UNL     C8   10   0.071   0.010   0.001
    1UNL     N2   11   0.122  -0.111  -0.038
    1UNL     C9   12   0.043  -0.238  -0.015
    1UNL    C10   13  -0.104  -0.215  -0.052
    1UNL    C11   14  -0.157  -0.080  -0.017
    1UNL    C12   15  -0.074   0.030   0.007
    1UNL     N3   16  -0.142   0.147   0.043
    1UNL    C13   17  -0.276   0.109   0.039
    1UNL    C14   18  -0.387   0.182   0.096
    1UNL    C15   19  -0.505   0.119   0.105
    1UNL    C16   20  -0.521  -0.013   0.061
    1UNL    C17   21  -0.412  -0.092   0.018
    1UNL    C18   22  -0.284  -0.028   0.009
    1UNL     H1   23   0.522  -0.139  -0.112
    1UNL     H2   24   0.591   0.268  -0.007
    1UNL     H3   25   0.364   0.293   0.055
    1UNL     H4   26   0.132   0.215   0.015
    1UNL     H5   27   0.087  -0.312  -0.086
    1UNL     H6   28   0.054  -0.269   0.086
    1UNL     H7   29  -0.164  -0.285   0.014
    1UNL     H8   30  -0.120  -0.242  -0.156
    1UNL     H9   31  -0.112   0.227   0.092
    1UNL    H10   32  -0.379   0.276   0.139
    1UNL    H11   33  -0.588   0.172   0.152
    1UNL    H12   34  -0.620  -0.054   0.054
    1UNL    H13   35  -0.426  -0.198  -0.005
   0.00000   0.00000   0.00000   0.00000   0.00000   0.00000   0.00000   0.00000   0.00000
Generated with MDTraj, t= 93.0
 35
    1UNL     O1    1   0.305  -0.251  -0.095
    1UNL     C1    2   0.259  -0.141  -0.076
    1UNL     C2    3   0.348  -0.028  -0.047
    1UNL     C3    4   0.485  -0.049  -0.037
    1UNL     N1    5   0.572   0.050  -0.012
    1UNL     C4    6   0.520   0.170   0.008
    1UNL     C5    7   0.385   0.202   0.008
    1UNL     C6    8   0.298   0.102  -0.030
    1UNL     C7    9   0.155   0.124  -0.036
    1UNL     C8   10   0.071   0.019  -0.045
    1UNL     N2   11   0.127  -0.108  -0.051
    1UNL     C9   12   0.042  -0.224  -0.047
    1UNL    C10   13  -0.112  -0.210  -0.051
    1UNL    C11   14  -0.156  -0.079  -0.003
    1UNL    C12   15  -0.071   0.025  -0.007
    1UNL     N3   16  -0.146   0.140   0.028
    1UNL    C13   17  -0.275   0.105   0.050
    1UNL    C14   18  -0.378   0.180   0.093
    1UNL    C15   19  -0.503   0.124   0.109
    1UNL    C16   20  -0.521  -0.017   0.091
    1UNL    C17   21  -0.416  -0.095   0.050
    1UNL    C18   22  -0.290  -0.036   0.025
    1UNL     H1   23   0.516  -0.148  -0.032
    1UNL     H2   24   0.592   0.242   0.018
    1UNL     H3   25   0.341   0.294   0.040
    1UNL     H4   26   0.117   0.225  -0.021
    1UNL     H5   27   0.070  -0.299  -0.123
    1UNL     H6   28   0.058  -0.260   0.051
    1UNL     H7   29  -0.150  -0.293   0.012
    1UNL     H8   30  -0.143  -0.223  -0.155
    1UNL     H9   31  -0.116   0.234   0.014
    1UNL    H10   32  -0.347   0.282   0.132
    1UNL    H11   33  -0.585   0.181   0.145
    1UNL    H12   34  -0.624  -0.048   0.113
    1UNL    H13   35  -0.423  -0.202   0.064
   0.00000   0.00000   0.00000   0.00000   0.00000   0.00000   0.00000   0.00000   0.00000
Generated with MDTraj, t= 94.0
 35
    1UNL     O1    1   0.310  -0.252  -0.077
    1UNL     C1    2   0.258  -0.145  -0.066
    1UNL     C2    3   0.343  -0.029  -0.045
    1UNL     C3    4   0.477  -0.049  -0.012
    1UNL     N1    5   0.564   0.051   0.006
    1UNL     C4    6   0.512   0.174  -0.001
    1UNL     C5    7   0.377   0.204  -0.012
    1UNL     C6    8   0.290   0.098  -0.034
    1UNL     C7    9   0.149   0.123  -0.038
    1UNL     C8   10   0.071   0.012  -0.035
    1UNL     N2   11   0.125  -0.118  -0.062
    1UNL     C9   12   0.038  -0.230  -0.077
    1UNL    C10   13  -0.118  -0.211  -0.068
    1UNL    C11   14  -0.156  -0.071  -0.023
    1UNL    C12   15  -0.068   0.033  -0.010
    1UNL     N3   16  -0.136   0.147   0.021
    1UNL    C13   17  -0.268   0.107   0.053
    1UNL    C14   18  -0.382   0.184   0.092
    1UNL    C15   19  -0.496   0.121   0.128
    1UNL    C16   20  -0.506  -0.023   0.107
    1UNL    C17   21  -0.401  -0.094   0.056
    1UNL    C18   22  -0.281  -0.027   0.027
    1UNL     H1   23   0.509  -0.156   0.003
    1UNL     H2   24   0.596   0.251   0.011
    1UNL     H3   25   0.336   0.302   0.011
    1UNL     H4   26   0.116   0.225  -0.025
    1UNL     H5   27   0.069  -0.274  -0.172
    1UNL     H6   28   0.069  -0.301  -0.006
    1UNL     H7   29  -0.165  -0.290  -0.005
    1UNL     H8   30  -0.155  -0.229  -0.169
    1UNL     H9   31  -0.114   0.247   0.037
    1UNL    H10   32  -0.376   0.288   0.096
    1UNL    H11   33  -0.583   0.183   0.159
    1UNL    H12   34  -0.591  -0.082   0.130
    1UNL    H13   35  -0.408  -0.198   0.035
   0.00000   0.00000   0.00000   0.00000   0.00000   0.00000   0.00000   0.00000   0.00000
Generated with MDTraj, t= 95.0
 35
    1UNL     O1    1   0.308  -0.251  -0.043
    1UNL     C1    2   0.257  -0.145  -0.041
    1UNL     C2    3   0.341  -0.026  -0.043
    1UNL     C3    4   0.481  -0.044  -0.024
    1UNL     N1    5   0.571   0.051  -0.023
    1UNL     C4    6   0.521   0.177  -0.011
    1UNL     C5    7   0.387   0.200  -0.007
    1UNL     C6    8   0.292   0.103  -0.024
    1UNL     C7    9   0.150   0.116  -0.018
    1UNL     C8   10   0.066   0.011  -0.041
    1UNL     N2   11   0.123  -0.117  -0.055
    1UNL     C9   12   0.040  -0.237  -0.087
    1UNL    C10   13  -0.109  -0.214  -0.053
    1UNL    C11   14  -0.162  -0.072  -0.044
    1UNL    C12   15  -0.077   0.038  -0.043
    1UNL     N3   16  -0.143   0.148   0.015
    1UNL    C13   17  -0.274   0.112   0.053
    1UNL    C14   18  -0.376   0.178   0.124
    1UNL    C15   19  -0.496   0.112   0.146
    1UNL    C16   20  -0.508  -0.019   0.097
    1UNL    C17   21  -0.409  -0.088   0.028
    1UNL    C18   22  -0.287  -0.025   0.012
    1UNL     H1   23   0.508  -0.144  -0.021
    1UNL     H2   24   0.581   0.252   0.023
    1UNL     H3   25   0.355   0.301   0.013
    1UNL     H4   26   0.105   0.209   0.005
    1UNL     H5   27   0.049  -0.245  -0.195
    1UNL     H6   28   0.089  -0.325  -0.056
    1UNL     H7   29  -0.121  -0.258   0.047
    1UNL     H8   30  -0.182  -0.263  -0.119
    1UNL     H9   31  -0.087   0.224   0.063
    1UNL    H10   32  -0.347   0.285   0.136
    1UNL    H11   33  -0.570   0.160   0.201
    1UNL    H12   34  -0.605  -0.072   0.109
    1UNL    H13   35  -0.424  -0.184  -0.022
   0.00000   0.00000   0.00000   0.00000   0.00000   0.00000   0.00000   0.00000   0.00000
Generated with MDTraj, t= 96.0
 35
    1UNL     O1    1   0.306  -0.255  -0.051
    1UNL     C1    2   0.267  -0.140  -0.046
    1UNL     C2    3   0.351  -0.026  -0.033
    1UNL     C3    4   0.486  -0.048  -0.044
    1UNL     N1    5   0.574   0.045  -0.031
    1UNL     C4    6   0.529   0.168  -0.031
    1UNL     C5    7   0.392   0.202  -0.007
    1UNL     C6    8   0.300   0.096  -0.015
    1UNL     C7    9   0.163   0.117   0.002
    1UNL     C8   10   0.071   0.018  -0.024
    1UNL     N2   11   0.122  -0.108  -0.051
    1UNL     C9   12   0.033  -0.208  -0.109
    1UNL    C10   13  -0.106  -0.213  -0.046
    1UNL    C11   14  -0.157  -0.077  -0.020
    1UNL    C12   15  -0.075   0.033  -0.015
    1UNL     N3   16  -0.145   0.140   0.034
    1UNL    C13   17  -0.279   0.110   0.053
    1UNL    C14   18  -0.392   0.183   0.101
    1UNL    C15   19  -0.513   0.113   0.106
    1UNL    C16   20  -0.526  -0.027   0.086
    1UNL    C17   21  -0.410  -0.094   0.048
    1UNL    C18   22  -0.289  -0.030   0.024
    1UNL     H1   23   0.522  -0.156  -0.049
    1UNL     H2   24   0.597   0.257  -0.013
    1UNL     H3   25   0.353   0.303  -0.012
    1UNL     H4   26   0.130   0.220   0.022
    1UNL     H5   27   0.033  -0.196  -0.217
    1UNL     H6   28   0.080  -0.299  -0.089
    1UNL     H7   29  -0.108  -0.263   0.052
    1UNL     H8   30  -0.169  -0.265  -0.120
    1UNL     H9   31  -0.114   0.243   0.036
    1UNL    H10   32  -0.383   0.288   0.123
    1UNL    H11   33  -0.603   0.179   0.129
    1UNL    H12   34  -0.618  -0.072   0.105
    1UNL    H13   35  -0.407  -0.197   0.027
   0.00000   0.00000   0.00000   0.00000   0.00000   0.00000   0.00000   0.00000   0.00000
Generated with MDTraj, t= 97.0
 35
    1UNL     O1    1   0.290  -0.248  -0.114
    1UNL     C1    2   0.255  -0.144  -0.071
    1UNL     C2    3   0.347  -0.030  -0.043
    1UNL     C3    4   0.483  -0.048  -0.064
    1UNL     N1    5   0.574   0.046  -0.033
    1UNL     C4    6   0.527   0.172  -0.007
    1UNL     C5    7   0.390   0.200  -0.003
    1UNL     C6    8   0.299   0.100  -0.012
    1UNL     C7    9   0.160   0.124   0.005
    1UNL     C8   10   0.073   0.020  -0.001
    1UNL     N2   11   0.114  -0.111  -0.043
    1UNL     C9   12   0.026  -0.218  -0.080
    1UNL    C10   13  -0.103  -0.214  -0.003
    1UNL    C11   14  -0.151  -0.076   0.016
    1UNL    C12   15  -0.068   0.038   0.026
    1UNL     N3   16  -0.144   0.152   0.042
    1UNL    C13   17  -0.272   0.106   0.049
    1UNL    C14   18  -0.385   0.179   0.064
    1UNL    C15   19  -0.506   0.115   0.069
    1UNL    C16   20  -0.517  -0.026   0.061
    1UNL    C17   21  -0.405  -0.104   0.048
    1UNL    C18   22  -0.280  -0.033   0.040
    1UNL     H1   23   0.523  -0.140  -0.085
    1UNL     H2   24   0.588   0.258  -0.009
    1UNL     H3   25   0.370   0.306   0.019
    1UNL     H4   26   0.124   0.217   0.039
    1UNL     H5   27   0.003  -0.209  -0.186
    1UNL     H6   28   0.076  -0.310  -0.069
    1UNL     H7   29  -0.093  -0.263   0.092
    1UNL     H8   30  -0.188  -0.256  -0.059
    1UNL     H9   31  -0.104   0.252   0.043
    1UNL    H10   32  -0.379   0.284   0.081
    1UNL    H11   33  -0.592   0.170   0.068
    1UNL    H12   34  -0.612  -0.083   0.068
    1UNL    H13   35  -0.413  -0.213   0.058
   0.00000   0.00000   0.00000   0.00000   0.00000   0.00000   0.00000   0.00000   0.00000
Generated with MDTraj, t= 98.0
 35
    1UNL     O1    1   0.281  -0.233  -0.145
    1UNL     C1    2   0.256  -0.133  -0.087
    1UNL     C2    3   0.352  -0.026  -0.055
    1UNL     C3    4   0.490  -0.035  -0.095
    1UNL     N1    5   0.574   0.064  -0.069
    1UNL     C4    6   0.530   0.160   0.019
    1UNL     C5    7   0.394   0.195   0.033
    1UNL     C6    8   0.301   0.094   0.002
    1UNL     C7    9   0.160   0.119   0.023
    1UNL     C8   10   0.079   0.016  -0.000
    1UNL     N2   11   0.121  -0.109  -0.048
    1UNL     C9   12   0.034  -0.227  -0.047
    1UNL    C10   13  -0.100  -0.234   0.042
    1UNL    C11   14  -0.153  -0.089   0.048
    1UNL    C12   15  -0.070   0.021   0.025
    1UNL     N3   16  -0.141   0.137   0.027
    1UNL    C13   17  -0.274   0.102   0.044
    1UNL    C14   18  -0.388   0.187   0.045
    1UNL    C15   19  -0.515   0.132   0.046
    1UNL    C16   20  -0.523  -0.009   0.045
    1UNL    C17   21  -0.415  -0.094   0.045
    1UNL    C18   22  -0.285  -0.038   0.053
    1UNL     H1   23   0.525  -0.128  -0.152
    1UNL     H2   24   0.602   0.241   0.033
    1UNL     H3   25   0.361   0.280   0.087
    1UNL     H4   26   0.118   0.203   0.078
    1UNL     H5   27   0.003  -0.236  -0.151
    1UNL     H6   28   0.088  -0.317  -0.032
    1UNL     H7   29  -0.069  -0.253   0.142
    1UNL     H8   30  -0.168  -0.314   0.009
    1UNL     H9   31  -0.097   0.232   0.050
    1UNL    H10   32  -0.388   0.296   0.041
    1UNL    H11   33  -0.612   0.189   0.046
    1UNL    H12   34  -0.622  -0.044   0.044
    1UNL    H13   35  -0.421  -0.200   0.063
   0.00000   0.00000   0.00000   0.00000   0.00000   0.00000   0.00000   0.00000   0.00000
Generated with MDTraj, t= 99.0
 35
    1UNL     O1    1   0.272  -0.233  -0.140
    1UNL     C1    2   0.253  -0.130  -0.081
    1UNL     C2    3   0.350  -0.026  -0.042
    1UNL     C3    4   0.481  -0.027  -0.101
    1UNL     N1    5   0.572   0.065  -0.088
    1UNL     C4    6   0.531   0.173  -0.018
    1UNL     C5    7   0.409   0.192   0.043
    1UNL     C6    8   0.311   0.089   0.026
    1UNL     C7    9   0.172   0.099   0.058
    1UNL     C8   10   0.080   0.006   0.027
    1UNL     N2   11   0.118  -0.111  -0.040
    1UNL     C9   12   0.033  -0.231  -0.060
    1UNL    C10   13  -0.103  -0.226   0.016
    1UNL    C11   14  -0.152  -0.086   0.048
    1UNL    C12   15  -0.070   0.028   0.052
    1UNL     N3   16  -0.146   0.144   0.034
    1UNL    C13   17  -0.276   0.108   0.026
    1UNL    C14   18  -0.390   0.184   0.021
    1UNL    C15   19  -0.513   0.123   0.038
    1UNL    C16   20  -0.521  -0.014   0.049
    1UNL    C17   21  -0.414  -0.093   0.053
    1UNL    C18   22  -0.286  -0.036   0.044
    1UNL     H1   23   0.491  -0.109  -0.162
    1UNL     H2   24   0.610   0.248  -0.017
    1UNL     H3   25   0.382   0.296   0.067
    1UNL     H4   26   0.142   0.196   0.093
    1UNL     H5   27   0.021  -0.276  -0.160
    1UNL     H6   28   0.093  -0.312  -0.020
    1UNL     H7   29  -0.092  -0.285   0.103
    1UNL     H8   30  -0.181  -0.277  -0.041
    1UNL     H9   31  -0.113   0.241   0.011
    1UNL    H10   32  -0.384   0.287  -0.002
    1UNL    H11   33  -0.602   0.181   0.034
    1UNL    H12   34  -0.618  -0.062   0.078
    1UNL    H13   35  -0.425  -0.199   0.064
   0.00000   0.00000   0.00000   0.00000   0.00000   0.00000   0.00000   0.00000   0.00000
