1TPCN00389
12
    1res  C1    1    0.291  -0.275  -0.037
    1res  C2    2    0.298  -0.103  -0.025
    1res  C3    3    0.525  -0.074  -0.047
    1res  C4    4    0.473   0.218  -0.014
    1res  C5    5    0.200   0.133   0.008
    1res  C6    6    0.095  -0.063  -0.001
    1res  C7    7   -0.058  -0.256  -0.030
    1res  C8    8   -0.116  -0.023   0.010
    1res  C9    9   -0.110   0.190   0.064
    1res  C10   10   -0.275   0.051   0.028
    1res  C11   11   -0.452   0.223   0.067
    1res  C12   12   -0.497  -0.058  -0.008
  10.00000  10.00000  10.00000
