[ moleculetype ]
; name        nrexcl
res           1

[ atoms ]
;    nr  type resnr resid  atom  cgnr     charge       mass
      1 TC4       1 res   C1        1      0.000     36.000
      2 TC3       1 res   C2        2      0.000     36.000
      3 TC5       1 res   C3        3      0.000     36.000
      4 SN4a      1 res   C4        4      0.000     54.000
      5 SN4a      1 res   C5        5      0.000     54.000
      6 TP1       1 res   C6        6      0.000     36.000
      7 TN6       1 res   C7        7      0.000     36.000
      8 TN6       1 res   C8        8      0.000     36.000
      9 TN6       1 res   C9        9      0.000     36.000
     10 TC3       1 res   C10      10      0.000     36.000
     11 SC4       1 res   C11      11      0.000     54.000
     12 TC3       1 res   C12      12      0.000     36.000
     13 SC4       1 res   C13      13      0.000     54.000
     14 SC4       1 res   C14      14      0.000     54.000
     15 TC3       1 res   C15      15      0.000     36.000
     16 TN6       1 res   C16      16      0.000     36.000
     17 SN4a      1 res   C17      17      0.000     54.000
     18 TP1       1 res   C18      18      0.000     36.000
     19 TN6       1 res   C19      19      0.000     36.000
     20 TN6       1 res   C20      20      0.000     36.000
     21 TN6       1 res   C21      21      0.000     36.000
     22 TC4       1 res   C22      22      0.000     36.000
     23 TP1       1 res   C23      23      0.000     36.000
     24 TC3       1 res   C24      24      0.000     36.000
     25 SN6       1 res   C25      25      0.000     54.000

[ bonds ]
;  ai    aj   funct      b0(nm)        k
    1     2     1      0.30909    20000
    1    25     1      0.27109    20000
    2     3     1      0.28810    20000
    3     4     1      0.23694    20000
    3    10     1      0.30044    20000
    3    11     1      0.32177    20000
    3    25     1      0.27104    20000
    4     5     1      0.27096    20000
    5     6     1      0.31995    20000
    5     7     1      0.28318    20000
    5     9     1      0.31058    20000
    7     8     1      0.22948    20000
    8     9     1      0.24312    20000
   10    11     1      0.27067    20000
   11    12     1      0.30992    20000
   11    13     1      0.27374    20000
   12    13     1      0.31363    20000
   13    14     1      0.35899    20000
   13    24     1      0.25273    20000
   14    15     1      0.28645    20000
   14    22     1      0.41323    20000
   14    24     1      0.36426    20000
   15    16     1      0.26410    20000
   16    17     1      0.32129    20000
   16    22     1      0.27744    20000
   17    18     1      0.24361    20000
   17    19     1      0.27977    20000
   17    21     1      0.28650    20000
   19    20     1      0.22640    20000
   20    21     1      0.26966    20000
   22    23     1      0.28870    20000
