[ moleculetype ]
; name        nrexcl
res           1

[ atoms ]
;    nr  type  resnr resid  atom  cgnr     charge       mass
      1 TC3       1 res   C1        1      0.000     36.000
      2 TC3       1 res   C2        2      0.000     36.000
      3 TN4a      1 res   C3        3      0.000     36.000
      4 SP4       1 res   C4        4      0.000     54.000
      5 TN4a      1 res   C5        5      0.000     36.000
      6 TP1       1 res   C6        6      0.000     36.000
      7 SP4       1 res   C7        7      0.000     54.000
      8 TC5       1 res   C8        8      0.000     36.000
      9 N4a       1 res   C9        9      0.000     72.000
     10 SN4a      1 res   C10      10      0.000     54.000
     11 N3r       1 res   C11      11      0.000     72.000
     12 TC3       1 res   C12      12      0.000     36.000
     13 SC3       1 res   C13      13      0.000     54.000
     14 SN4a      1 res   C14      14      0.000     54.000
     15 TC3       1 res   C15      15      0.000     36.000
     16 TC5       1 res   C16      16      0.000     36.000
     17 N4a       1 res   C17      17      0.000     72.000
     18 TN4a      1 res   C18      18      0.000     36.000
     19 SP4       1 res   C19      19      0.000     54.000
     20 TN4a      1 res   C20      20      0.000     36.000
     21 TP1       1 res   C21      21      0.000     36.000
     22 SP4       1 res   C22      22      0.000     54.000
     23 TC3       1 res   C23      23      0.000     36.000
     24 TP1       1 res   C24      24      0.000     36.000

[ constraints ]
;  ai    aj   funct      b0(nm)
    4     5     1      0.25660
    5     7     1      0.21702
   20    22     1      0.27758
    2    10     1      0.24342
   14    15     1      0.24751
   16    18     1      0.25961
   19    20     1      0.28567
    5     6     1      0.21723
    4     7     1      0.25279
   15    16     1      0.26364
    1     2     1      0.30634
    2     3     1      0.21526
   11    12     1      0.29250
    3     8     1      0.24372
   20    21     1      0.20591
   16    17     1      0.32237
   19    22     1      0.31187
    3     4     1      0.34858
   12    13     1      0.27856
    2     8     1      0.25519
    8     9     1      0.32140

[ bonds ]
;  ai    aj   funct      b0(nm)          k(kJ/mol/nm^2)
   13    14     1      0.41669           3108.9
   15    23     1      0.32067          19344.1
   18    19     1      0.30384           2463.5
   10    11     1      0.39332           6715.6
   13    24     1      0.32137          17293.3
   15    18     1      0.25926          13623.2

[ angles ]
;  ai    aj    ak  funct     th0(deg)        k(kJ/mol/rad^2)
    1     2     3     1     98.03570          1496.61
    1     2     8     1    110.48412           276.45
    1     2    10     1     70.63421          1010.26
    2     3     4     1    133.24170           113.22
    2     3     8     1     67.23739          1204.44
    2     8     3     1     51.00953          3093.92
    2     8     9     1    106.79820           895.54
    2    10    11     1     77.63055           254.10
    3     2     8     1     61.75271           793.54
    3     2    10     1    166.83320           600.53
    3     4     5     1     45.35200           715.93
    3     4     7     1     86.49938           227.78
    3     8     9     1    155.05484           481.04
    4     3     8     1    153.37831           115.20
    4     5     6     1    133.09324           280.98
    4     5     7     1     63.85181          1524.73
    4     7     5     1     65.74593           769.70
    5     4     7     1     50.40190          1912.14
    6     5     7     1    107.33816           351.64
    8     2    10     1    120.84235           583.12
   10    11    12     1    135.63835            20.06
   11    12    13     1    111.58185           461.48
   12    13    14     1     74.41528            69.92
   12    13    24     1     80.37996           658.85
   13    14    15     1    134.02969            83.03
   14    13    24     1     91.68033            36.18
   14    15    16     1    110.02039           310.82
   14    15    18     1    138.91629            10.21
   14    15    23     1    105.74617           117.41
   15    16    17     1    103.07161           237.57
   15    16    18     1     59.36529          1398.10
   15    18    16     1     61.03111          5559.13
   15    18    19     1    104.04770            55.74
   16    15    18     1     59.60343          1336.33
   16    15    23     1    116.78115           130.87
   16    18    19     1    109.99045            17.35
   17    16    18     1    157.53505           278.53
   18    15    23     1     66.67045           595.57
   18    19    20     1     73.04152           122.32
   18    19    22     1    120.11090           177.05
   19    20    21     1    144.16278            74.33
   19    20    22     1     67.24518          1889.02
   19    22    20     1     57.63159          2242.17
   20    19    22     1     55.12343          4700.09
   21    20    22     1    113.59664           130.70

[ dihedrals ]
;  ai    aj    ak    al  funct   phi0(deg)        k(kJ/mol)   mult
    1     2     3     4     1    130.53848       17.670      1
    1     2     3     8     1    -69.80233       12.099      1
    1     2     8     3     1     91.24870        7.066      1
    1     2     8     9     1    -81.30018       17.011      1
    1     2    10    11     1    -83.04628       18.262      1
    2     3     4     5     1     19.03251       27.179      1
    2     3     4     7     1    -15.94122       22.172      1
    2     3     8     9     1   -161.18237       23.391      1
    2     8     3     4     1    -36.90729       21.868      1
    2    10    11    12     1     67.36615       27.352      1
    3     2     8     9     1      8.94612       15.730      1
    3     2    10    11     1    -81.32707       29.189      1
    3     4     5     6     1    -43.82051       16.439      1
    3     4     5     7     1     46.64035       15.731      1
    3     4     7     5     1   -150.00246        9.271      1
    3     8     2    10     1     12.97965       10.064      1
    4     3     2     8     1     21.58211       18.323      1
    4     3     2    10     1    130.71390       32.267      1
    4     3     8     9     1    -15.62154       27.842      1
    4     7     5     6     1    -49.57985       10.760      1
    5     4     3     8     1   -118.34826       27.616      1
    6     5     4     7     1     87.90228       12.155      1
    7     4     3     8     1   -150.64106       26.454      1
    8     2    10    11     1     23.86369       17.763      1
    8     3     2    10     1    -66.18529       29.022      1
    9     8     2    10     1   -159.50854       17.007      1
   10    11    12    13     1     85.80055       30.598      1
   11    12    13    14     1     61.93495       25.223      1
   11    12    13    24     1    164.52371       18.692      1
   12    13    14    15     1     63.79457       28.511      1
   13    14    15    16     1    -14.56365       24.797      1
   13    14    15    18     1     36.91673       19.749      1
   13    14    15    23     1    109.36655       21.481      1
   14    15    16    17     1    134.30806       27.130      1
   14    15    16    18     1    -51.23156       25.288      1
   14    15    18    16     1    104.88133       21.077      1
   14    15    18    19     1     -4.86212       25.794      1
   15    14    13    24     1    -12.14989       28.929      1
   15    16    18    19     1    -78.28549       24.167      1
   15    18    16    17     1   -169.23715       29.881      1
   15    18    19    20     1    -16.22367       26.502      1
   15    18    19    22     1    -35.96343       25.334      1
   16    15    18    19     1     75.55833       27.437      1
   16    18    15    23     1     11.52615       30.218      1
   16    18    19    20     1    -70.38864       31.481      1
   16    18    19    22     1    -95.15113       25.075      1
   17    16    15    18     1      4.86599       20.334      1
   17    16    15    23     1     12.80158       28.136      1
   17    16    18    19     1    -79.85503       33.074      1
   18    16    15    23     1   -175.77940       28.182      1
   18    19    20    21     1    126.02229       25.275      1
   18    19    20    22     1     24.63487       24.297      1
   18    19    22    20     1   -152.48738       23.559      1
   19    18    15    23     1    -87.04690       26.690      1
   19    22    20    21     1     40.86273       17.581      1
   21    20    19    22     1    -77.91725       19.064      1
