1TPCN04048
32
    1res  C1    1   -0.855  -0.231   0.319
    1res  C2    2   -0.824   0.021   0.272
    1res  C3    3   -0.779   0.236   0.096
    1res  C4    4   -0.965   0.230  -0.017
    1res  C5    5   -1.191   0.171  -0.125
    1res  C6    6   -0.504   0.273   0.059
    1res  C7    7   -0.638   0.239  -0.272
    1res  C8    8   -0.544  -0.051  -0.037
    1res  C9    9   -0.819  -0.234  -0.071
    1res  C10   10   -0.312   0.034   0.103
    1res  C11   11   -0.200   0.229  -0.181
    1res  C12   12   -0.266  -0.036  -0.196
    1res  C13   13    0.007  -0.112  -0.274
    1res  C14   14    0.208   0.072  -0.177
    1res  C15   15    0.319  -0.164  -0.152
    1res  C16   16    0.564  -0.172  -0.288
    1res  C17   17    0.655  -0.352  -0.452
    1res  C18   18    0.840  -0.175  -0.256
    1res  C19   19    0.756  -0.147  -0.057
    1res  C20   20    1.047  -0.161  -0.030
    1res  C21   21    1.271  -0.214   0.124
    1res  C22   22    1.132  -0.047   0.219
    1res  C23   23    1.267   0.198   0.228
    1res  C24   24    1.242   0.393   0.018
    1res  C25   25    1.087   0.451   0.202
    1res  C26   26    0.987   0.264   0.262
    1res  C27   27    0.903  -0.144   0.219
    1res  C28   28    0.614  -0.291  -0.030
    1res  C29   29    0.205  -0.329  -0.005
    1res  C30   30    0.220  -0.106   0.142
    1res  C31   31   -0.159  -0.234  -0.022
    1res  C32   32   -0.643   0.315   0.318
  10.00000  10.00000  10.00000
