1TPCN00020
10
    1res  C1    1   -0.335   0.075   0.074
    1res  C2    2   -0.026   0.208  -0.006
    1res  C3    3    0.178   0.006   0.014
    1res  C4    4    0.373  -0.092   0.177
    1res  C5    5    0.480   0.058  -0.049
    1res  C6    6    0.172   0.133  -0.181
    1res  C7    7    0.011  -0.024  -0.284
    1res  C8    8   -0.139  -0.172  -0.087
    1res  C9    9    0.071  -0.335   0.007
    1res  C10   10   -0.061  -0.197   0.256
  10.00000  10.00000  10.00000
