[ moleculetype ]
; name        nrexcl
res           1

[ atoms ]
;    nr  type resnr resid  atom  cgnr     charge       mass
      1 TC4       1 res   C1        1      0.000     36.000
      2 TN4a      1 res   C2        2      0.000     36.000
      3 SN4a      1 res   C3        3      0.000     54.000
      4 SC5       1 res   C4        4      0.000     54.000
      5 TC3       1 res   C5        5      0.000     36.000
      6 SC4       1 res   C6        6      0.000     54.000
      7 TC5       1 res   C7        7      0.000     36.000
      8 TC3       1 res   C8        8      0.000     36.000
      9 SC4       1 res   C9        9      0.000     54.000
     10 SC4       1 res   C10      10      0.000     54.000
     11 SN6       1 res   C11      11      0.000     54.000
     12 TN6       1 res   C12      12      0.000     36.000
     13 SN4a      1 res   C13      13      0.000     54.000
     14 TP1       1 res   C14      14      0.000     36.000
     15 TN6       1 res   C15      15      0.000     36.000
     16 TN6       1 res   C16      16      0.000     36.000
     17 TN6       1 res   C17      17      0.000     36.000
     18 TC4       1 res   C18      18      0.000     36.000
     19 SP2       1 res   C19      19      0.000     54.000
     20 TC3       1 res   C20      20      0.000     36.000
     21 TN2a      1 res   C21      21      0.000     36.000
     22 TC3       1 res   C22      22      0.000     36.000
     23 TN6       1 res   C23      23      0.000     36.000
     24 TN4a      1 res   C24      24      0.000     36.000
     25 TC4       1 res   C25      25      0.000     36.000
     26 TN6       1 res   C26      26      0.000     36.000
     27 SN4a      1 res   C27      27      0.000     54.000
     28 TN6       1 res   C28      28      0.000     36.000
     29 TN6       1 res   C29      29      0.000     36.000
     30 TN6       1 res   C30      30      0.000     36.000
     31 TN6       1 res   C31      31      0.000     36.000
     32 TN6       1 res   C32      32      0.000     36.000
     33 TN6       1 res   C33      33      0.000     36.000
     34 TN6       1 res   C34      34      0.000     36.000

[ bonds ]
;  ai    aj   funct      b0(nm)        k
    1     2     1      0.32193    20000
    1    34     1      0.25631    20000
    2     3     1      0.24806    20000
    2    23     1      0.21782    20000
    3     4     1      0.33633    20000
    4     5     1      0.28516    20000
    4     6     1      0.27428    20000
    4     7     1      0.24668    20000
    4    22     1      0.36138    20000
    5     6     1      0.30976    20000
    7     8     1      0.26246    20000
    7     9     1      0.28666    20000
    7    21     1      0.24604    20000
    7    22     1      0.24643    20000
    8     9     1      0.38026    20000
    9    10     1      0.37405    20000
    9    20     1      0.28291    20000
   10    11     1      0.30959    20000
   10    18     1      0.39472    20000
   10    20     1      0.37251    20000
   11    12     1      0.25672    20000
   12    13     1      0.27268    20000
   12    18     1      0.25045    20000
   13    14     1      0.31275    20000
   13    15     1      0.30671    20000
   13    17     1      0.25273    20000
   15    16     1      0.23813    20000
   16    17     1      0.21681    20000
   18    19     1      0.30796    20000
   23    24     1      0.21012    20000
   23    33     1      0.21372    20000
   24    25     1      0.24709    20000
   24    32     1      0.25298    20000
   25    26     1      0.25464    20000
   26    27     1      0.27934    20000
   26    31     1      0.23886    20000
   27    28     1      0.26456    20000
   27    30     1      0.31891    20000
   28    29     1      0.22321    20000
   29    30     1      0.24089    20000
   31    32     1      0.22695    20000
   33    34     1      0.23476    20000
