[ moleculetype ]
; name        nrexcl
res           1

[ atoms ]
;    nr  type  resnr resid  atom  cgnr     charge       mass
      1 TC3       1 res   C1        1      0.000     36.000
      2 TC3       1 res   C2        2      0.000     36.000
      3 TC3       1 res   C3        3      0.000     36.000
      4 TC5       1 res   C4        4      0.000     36.000
      5 N4a       1 res   C5        5      0.000     72.000
      6 TC5       1 res   C6        6      0.000     36.000
      7 TN6d      1 res   C7        7      0.000     36.000
      8 TC5       1 res   C8        8      0.000     36.000
      9 TC5       1 res   C9        9      0.000     36.000
     10 TC5       1 res   C10      10      0.000     36.000
     11 TC3       1 res   C11      11      0.000     36.000
     12 TN6d      1 res   C12      12      0.000     36.000
     13 SN5a      1 res   C13      13      0.000     54.000

[ constraints ]
;  ai    aj   funct      b0(nm)
    1     2     1      0.25667
    2     3     1      0.27150
   11    12     1      0.24111
    4     5     1      0.36963
    6     8     1      0.18479
    3     4     1      0.29118
    7     8     1      0.21757
    6    11     1      0.25635
    8    10     1      0.25002
    9    10     1      0.29142
    6     7     1      0.21770
    8     9     1      0.25000
    2     4     1      0.26772
    3    12     1      0.24302
    4     6     1      0.24244
    4    12     1      0.26011

[ bonds ]
;  ai    aj   funct      b0(nm)          k(kJ/mol/nm^2)
   12    13     1      0.31299          14722.7

[ angles ]
;  ai    aj    ak  funct     th0(deg)        k(kJ/mol/rad^2)
    1     2     3     1    150.80576           278.05
    1     2     4     1     94.91903          1237.63
    2     3     4     1     56.68748          5380.45
    2     3    12     1     76.36821          2476.85
    2     4     3     1     57.94468          3860.98
    2     4     5     1     79.28768           229.98
    2     4     6     1    138.79696           913.08
    2     4    12     1     74.31563          2735.63
    3     2     4     1     65.36779          4398.02
    3     4     5     1     76.99486          1085.68
    3     4     6     1     81.01635          1143.35
    3     4    12     1     51.93248          4030.11
    3    12     4     1     70.63879          3235.13
    3    12    11     1    123.03656           264.19
    3    12    13     1    101.03704           244.23
    4     3    12     1     57.42866          3500.26
    4     6     7     1     94.03419           798.75
    4     6     8     1    148.91573           316.09
    4     6    11     1     78.90512          2269.94
    4    12    11     1     78.44157          1196.89
    4    12    13     1    146.12813           133.31
    5     4     6     1     91.68032           330.65
    5     4    12     1    128.53030           877.47
    6     4    12     1     81.20185           759.01
    6     7     8     1     50.24468          7988.31
    6     8     7     1     64.91691          4368.46
    6     8     9     1    160.87879          1525.54
    6     8    10     1    126.89047          1559.69
    6    11    12     1     82.30656           443.08
    7     6     8     1     64.83838          6104.08
    7     6    11     1    169.01279           295.37
    7     8     9     1     96.57528          1691.21
    7     8    10     1    166.80124          1076.69
    8     6    11     1    118.19365          1600.63
    8     9    10     1     54.35274          8877.27
    8    10     9     1     54.34754          8250.57
    9     8    10     1     71.29968          7206.99
   11    12    13     1    128.30169           123.49

[ dihedrals ]
;  ai    aj    ak    al  funct   phi0(deg)        k(kJ/mol)   mult
    1     2     3     4     1    135.15974       18.933      1
    1     2     3    12     1   -166.26444       19.637      1
    1     2     4     3     1    -20.96185       14.323      1
    1     2     4     5     1     58.09787       13.637      1
    1     2     4     6     1    -20.97454       12.927      1
    1     2     4    12     1    -76.68748       12.921      1
    2     3     4     5     1     95.03313       12.887      1
    2     3     4     6     1      0.96608        8.507      1
    2     3     4    12     1    -85.02302        5.515      1
    2     3    12     4     1    122.86346        3.955      1
    2     3    12    11     1     61.62741       10.716      1
    2     3    12    13     1    -92.04978       13.613      1
    2     4     3    12     1     85.02302        5.515      1
    2     4     6     7     1    -88.47116       12.919      1
    2     4     6     8     1    -47.71936       15.619      1
    2     4     6    11     1     83.04190        8.548      1
    2     4    12     3     1   -117.12229        5.479      1
    2     4    12    11     1     11.11327       11.462      1
    2     4    12    13     1    160.61246       16.933      1
    3     2     4     5     1    -97.11176        7.063      1
    3     2     4     6     1   -177.94949       10.764      1
    3     2     4    12     1    125.06145        3.987      1
    3     4     6     7     1    -86.74045       15.663      1
    3     4     6     8     1    -45.54998       16.957      1
    3     4     6    11     1     84.04055        9.276      1
    3     4    12    11     1    -49.80337       12.177      1
    3     4    12    13     1     96.92361       16.979      1
    3    12     4     5     1   -179.23860       14.355      1
    3    12     4     6     1     95.91906        6.335      1
    3    12    11     6     1   -167.26096       12.904      1
    4     2     3    12     1   -119.09759        3.997      1
    4     3    12    11     1    119.95208       10.724      1
    4     3    12    13     1    -34.01568       13.576      1
    4     6     7     8     1    -23.73829       10.761      1
    4     6     8     7     1    131.49297       14.311      1
    4     6     8     9     1    126.66029       22.411      1
    4     6     8    10     1    -47.08418       17.090      1
    4     6    11    12     1   -133.02722        7.084      1
    4    12    11     6     1    135.89041        7.817      1
    5     4     3    12     1      0.96035       12.895      1
    5     4     6     7     1   -163.69384       16.348      1
    5     4     6     8     1   -123.34443       18.403      1
    5     4     6    11     1      6.93754       10.072      1
    5     4    12    11     1    -47.92817       13.574      1
    5     4    12    13     1     96.69974       16.769      1
    6     4     3    12     1    -94.93523        8.507      1
    6     4    12    11     1   -133.06451        8.549      1
    6     4    12    13     1     10.98036       15.565      1
    6     7     8     9     1     -2.96462       10.014      1
    6     7     8    10     1     -2.53275       26.364      1
    6     8     9    10     1      1.35873       21.424      1
    6     8    10     9     1     -3.32297       11.496      1
    6    11    12    13     1    -19.18791       14.306      1
    7     6     4    12     1    -35.61307       15.015      1
    7     6     8     9     1    176.48152       22.132      1
    7     6     8    10     1      0.25405       13.588      1
    7     6    11    12     1   -107.71000       23.972      1
    7     8     6    11     1     10.88775       14.290      1
    7     8     9    10     1      1.00826       11.447      1
    7     8    10     9     1   -176.15315       26.000      1
    8     6     4    12     1      5.51590       16.247      1
    8     6    11    12     1     19.94617       14.281      1
    8     7     6    11     1    -44.42712       23.913      1
    9     8     6    11     1      7.54247       23.886      1
   10     8     6    11     1   -168.13990       15.026      1
   11     6     4    12     1    136.10300        9.265      1
