[ moleculetype ]
; name        nrexcl
res           1

[ atoms ]
;    nr  type  resnr resid  atom  cgnr     charge       mass
      1 TC5       1 res   C1        1      0.000     36.000
      2 TC5       1 res   C2        2      0.000     36.000
      3 TC5       1 res   C3        3      0.000     36.000
      4 TN6d      1 res   C4        4      0.000     36.000
      5 TC3       1 res   C5        5      0.000     36.000
      6 TC5       1 res   C6        6      0.000     36.000
      7 TC5       1 res   C7        7      0.000     36.000
      8 TC5       1 res   C8        8      0.000     36.000
      9 TC5       1 res   C9        9      0.000     36.000
     10 TN6d      1 res   C10      10      0.000     36.000
     11 TN6a      1 res   C11      11      0.000     36.000
     12 N4a       1 res   C12      12      0.000     72.000
     13 SC3       1 res   C13      13      0.000     54.000

[ constraints ]
;  ai    aj   funct      b0(nm)
    2    13     1      0.27302
   10    11     1      0.18537
    2     3     1      0.29862
    6    12     1      0.35031
    4     5     1      0.32047
    2     6     1      0.21152
    7    10     1      0.22448
    7     9     1      0.25047
    3     4     1      0.25642
    7     8     1      0.24938
    5     6     1      0.26833
    6     7     1      0.22191
    6    10     1      0.26389
    2     4     1      0.26322
    6    13     1      0.22785
    8     9     1      0.28793

[ bonds ]
;  ai    aj   funct      b0(nm)          k(kJ/mol/nm^2)
    1     2     1      0.26076           8182.9

[ angles ]
;  ai    aj    ak  funct     th0(deg)        k(kJ/mol/rad^2)
    1     2     3     1     86.06406            81.92
    1     2     4     1    117.92226            79.11
    1     2     6     1    112.54685            96.28
    1     2    13     1     77.31013           148.78
    2     3     4     1     55.99191          3695.41
    2     4     3     1     70.15251          2834.76
    2     4     5     1     63.77563          5484.96
    2     6     5     1     80.23653          3434.63
    2     6     7     1     94.59450           708.43
    2     6    10     1    104.06782           344.33
    2     6    12     1    145.42975           472.15
    2     6    13     1     76.73806          3219.79
    2    13     6     1     48.93879          6505.26
    3     2     4     1     53.85550          5987.46
    3     2     6     1    113.26925           895.77
    3     2    13     1     71.63034          1576.67
    3     4     5     1     87.98136           314.45
    4     2     6     1    124.79383          1137.72
    4     2    13     1    119.17982           408.50
    4     5     6     1     90.92980          3456.89
    5     6     7     1    101.80484           821.40
    5     6    10     1    155.15277           797.50
    5     6    12     1     91.74564           235.09
    5     6    13     1    103.54335           392.39
    6     2    13     1     54.32309          4204.00
    6     7     8     1    116.95312          2239.11
    6     7     9     1    169.87317           659.08
    6     7    10     1     72.48241          4107.65
    6    10     7     1     53.31417          5679.31
    6    10    11     1     81.62460          1530.05
    7     6    10     1     54.20342          9961.81
    7     6    12     1    119.45235           415.13
    7     6    13     1    151.06803           552.45
    7     8     9     1     55.00208         11844.94
    7     9     8     1     54.65109          9031.46
    7    10    11     1    134.19415          1039.81
    8     7     9     1     70.34683          6422.99
    8     7    10     1    168.49463          1175.53
    9     7    10     1    100.34317          2222.06
   10     6    12     1     96.87706           299.15
   10     6    13     1    100.80255           837.37
   12     6    13     1     73.23905           991.40

[ dihedrals ]
;  ai    aj    ak    al  funct   phi0(deg)        k(kJ/mol)   mult
    1     2     3     4     1     50.21285       14.295      1
    1     2     4     3     1   -124.25897       16.379      1
    1     2     4     5     1    -23.84817       15.038      1
    1     2     6     5     1     25.39799       16.970      1
    1     2     6     7     1    -74.54211       16.913      1
    1     2     6    10     1   -130.28568       16.935      1
    1     2     6    12     1    101.72649       23.298      1
    1     2     6    13     1    132.38744       15.534      1
    1     2    13     6     1    -45.74078       16.383      1
    2     3     4     5     1    117.98919        4.762      1
    2     4     5     6     1    178.01923        6.236      1
    2     6     5     4     1   -177.99318        6.263      1
    2     6     7     8     1   -104.00194       13.666      1
    2     6     7     9     1     47.87394       29.286      1
    2     6     7    10     1     76.00160       10.688      1
    2     6    10     7     1    -94.05279        7.790      1
    2     6    10    11     1     93.16244       11.501      1
    2    13     6     5     1   -103.04082        5.521      1
    2    13     6     7     1    105.56548       13.560      1
    2    13     6    10     1     77.05369        9.994      1
    2    13     6    12     1    -18.87111       12.928      1
    3     2     4     5     1    -82.93108       11.503      1
    3     2     6     5     1    116.94504        8.540      1
    3     2     6     7     1     14.06951       10.774      1
    3     2     6    10     1    -39.02828       10.052      1
    3     2     6    12     1   -163.40534       18.415      1
    3     2     6    13     1   -137.96918       12.217      1
    3     2    13     6     1     41.08937       11.512      1
    3     4     2     6     1     84.23484        9.300      1
    3     4     2    13     1    149.16867       12.939      1
    3     4     5     6     1   -113.92290       10.757      1
    4     2     6     5     1    177.15890        8.518      1
    4     2     6     7     1     75.97295       10.704      1
    4     2     6    10     1     22.24897        9.273      1
    4     2     6    12     1   -104.73384       17.162      1
    4     2     6    13     1    -76.02756       10.794      1
    4     2    13     6     1     65.97473        6.283      1
    4     3     2     6     1    -63.92060        7.835      1
    4     3     2    13     1    -28.96350       14.357      1
    4     5     6     7     1    -85.03038        8.571      1
    4     5     6    10     1    -77.30680       20.945      1
    4     5     6    12     1     35.97945        9.320      1
    4     5     6    13     1    108.97480        7.091      1
    5     4     2     6     1   -177.92198        7.771      1
    5     4     2    13     1   -112.18320        7.790      1
    5     6     2    13     1     73.96037        9.344      1
    5     6     7     8     1    175.00925       14.378      1
    5     6     7     9     1    -31.80456       30.298      1
    5     6     7    10     1     -5.92720       10.746      1
    5     6    10     7     1    169.51004       18.288      1
    5     6    10    11     1     -7.21027       17.136      1
    6     7     8     9     1     -7.94819       12.203      1
    6     7     9     8     1     21.01230       30.404      1
    6     7    10    11     1   -171.21620       15.697      1
    6    10     7     8     1      7.88327       28.034      1
    6    10     7     9     1     -7.98883       10.762      1
    7     6     2    13     1    -28.01352        7.812      1
    7     6    10    11     1      6.94386       11.460      1
    7    10     6    12     1     58.80356        8.556      1
    7    10     6    13     1    -15.04427        8.512      1
    8     7     6    10     1     -2.91130       11.530      1
    8     7     6    12     1     74.02980       15.072      1
    8     7     6    13     1    -34.15447       15.049      1
    8     7    10    11     1     20.15812       30.941      1
    8     9     7    10     1     -3.87181       10.782      1
    9     7     6    10     1    152.58114       25.543      1
    9     7     6    12     1   -130.43916       30.106      1
    9     7     6    13     1    118.19685       26.986      1
    9     7    10    11     1      1.97271       16.505      1
    9     8     7    10     1    162.57204       30.897      1
   10     6     2    13     1    -82.95105        7.084      1
   10     7     6    12     1   -103.04091       11.491      1
   10     7     6    13     1    149.78698       13.597      1
   11    10     6    12     1   -115.36634       13.539      1
   11    10     6    13     1    172.11604       13.622      1
   12     6     2    13     1    149.89922       17.782      1
