1TPCN00134
13
    1res  C1    1    0.260  -0.079   0.257
    1res  C2    2    0.129   0.023   0.066
    1res  C3    3    0.361  -0.099  -0.079
    1res  C4    4    0.307   0.153  -0.071
    1res  C5    5    0.038   0.082  -0.225
    1res  C6    6   -0.056  -0.039  -0.002
    1res  C7    7   -0.163   0.128   0.101
    1res  C8    8   -0.152   0.357  -0.007
    1res  C9    9   -0.306   0.293   0.230
    1res  C10   10   -0.182  -0.055   0.233
    1res  C11   11   -0.117  -0.234   0.221
    1res  C12   12   -0.264  -0.297  -0.159
    1res  C13   13    0.064  -0.228  -0.019
  10.00000  10.00000  10.00000
