1TPCN01272
11
    1res  C1    1   -0.008   0.034   0.243
    1res  C2    2    0.222   0.099  -0.185
    1res  C3    3    0.436  -0.019  -0.113
    1res  C4    4    0.619  -0.254  -0.189
    1res  C5    5    0.466  -0.122  -0.396
    1res  C6    6   -0.062   0.275  -0.067
    1res  C7    7   -0.238   0.343   0.115
    1res  C8    8   -0.290   0.106   0.014
    1res  C9    9   -0.260  -0.093   0.225
    1res  C10   10   -0.466  -0.157  -0.016
    1res  C11   11   -0.529  -0.116   0.233
  10.00000  10.00000  10.00000
