[ moleculetype ]
; name        nrexcl
res           1

[ atoms ]
;    nr  type resnr resid  atom  cgnr     charge       mass
      1 C4        1 res   C1        1      0.000     72.000
      2 SN4a      1 res   C2        2      0.000     54.000
      3 TC5       1 res   C3        3      0.000     36.000
      4 SN6       1 res   C4        4      0.000     54.000
      5 TC5       1 res   C5        5      0.000     36.000
      6 SC4       1 res   C6        6      0.000     54.000
      7 TN6a      1 res   C7        7      0.000     36.000
      8 TN4a      1 res   C8        8      0.000     36.000
      9 SC3       1 res   C9        9      0.000     54.000
     10 TC4       1 res   C10      10      0.000     36.000
     11 TN6       1 res   C11      11      0.000     36.000

[ bonds ]
;  ai    aj   funct      b0(nm)        k
    1     2     1      0.49013    20000
    1     6     1      0.39629    20000
    1     9     1      0.28293    20000
    2     3     1      0.25482    20000
    3     4     1      0.30701    20000
    3     5     1      0.30195    20000
    4     5     1      0.28948    20000
    6     7     1      0.26181    20000
    6     8     1      0.29495    20000
    7     8     1      0.26284    20000
    8     9     1      0.29143    20000
    9    10     1      0.32320    20000
    9    11     1      0.26994    20000
   10    11     1      0.26025    20000
