[ moleculetype ]
; name        nrexcl
res           1

[ atoms ]
;    nr  type  resnr resid  atom  cgnr     charge       mass
      1 TC5       1 res   C1        1      0.000     36.000
      2 SN6       1 res   C2        2      0.000     54.000
      3 SN4a      1 res   C3        3      0.000     54.000
      4 TP1       1 res   C4        4      0.000     36.000
      5 SP4       1 res   C5        5      0.000     54.000
      6 TN6       1 res   C6        6      0.000     36.000
      7 TN4a      1 res   C7        7      0.000     36.000
      8 TC5       1 res   C8        8      0.000     36.000
      9 TN6a      1 res   C9        9      0.000     36.000
     10 SN6d      1 res   C10      10      0.000     54.000
     11 TC3       1 res   C11      11      0.000     36.000
     12 TC5       1 res   C12      12      0.000     36.000
     13 TN6d      1 res   C13      13      0.000     36.000
     14 TC5       1 res   C14      14      0.000     36.000
     15 TC5       1 res   C15      15      0.000     36.000
     16 TC5       1 res   C16      16      0.000     36.000

[ constraints ]
;  ai    aj   funct      b0(nm)
   13    14     1      0.21830
    9    10     1      0.32315
   10    12     1      0.24653
    2     7     1      0.27700
    3     6     1      0.28107
   14    15     1      0.25027
    5     6     1      0.30821
   15    16     1      0.29118
    1     2     1      0.30923
   10    11     1      0.36383
    3     5     1      0.26772
    2     3     1      0.27292
   11    12     1      0.24500
   12    14     1      0.18346
    8    10     1      0.21875
    7     8     1      0.26119
    3     4     1      0.20715
   12    13     1      0.21878
    2     8     1      0.26287
   14    16     1      0.24990
    8     9     1      0.27105

[ bonds ]
;  ai    aj   funct      b0(nm)          k(kJ/mol/nm^2)

[ angles ]
;  ai    aj    ak  funct     th0(deg)        k(kJ/mol/rad^2)
    1     2     3     1    115.22679           554.42
    1     2     7     1     98.86121           514.81
    1     2     8     1     71.75717           300.97
    2     3     4     1    114.13716           455.28
    2     3     5     1    147.79502           680.32
    2     3     6     1     80.67826          1288.98
    2     7     8     1     58.38720          4510.26
    2     8     7     1     63.82143          3812.05
    2     8     9     1    117.65014           610.35
    2     8    10     1    103.89175          1262.93
    3     2     7     1    139.19848           908.61
    3     2     8     1    111.66215          1004.42
    3     5     6     1     57.90778          1964.69
    3     6     5     1     53.80790          1848.37
    4     3     5     1     87.82819           897.69
    4     3     6     1    141.20910           328.62
    5     3     6     1     68.28393          1253.03
    7     2     8     1     57.79140          6077.79
    7     8     9     1     66.06051          2288.19
    7     8    10     1    129.57343           762.97
    8     9    10     1     42.05052          6277.91
    8    10     9     1     56.11844          2845.60
    8    10    11     1    107.52250          1240.22
    8    10    12     1    142.02557           314.10
    9     8    10     1     81.83088          2073.90
    9    10    11     1     52.03533          2217.80
    9    10    12     1     88.52003           707.14
   10    11    12     1     42.40980          8163.80
   10    12    11     1     95.50100          3555.83
   10    12    13     1     70.76937          1401.34
   10    12    14     1    133.66172           935.49
   11    10    12     1     42.08916          7132.59
   11    12    13     1    163.32490           721.55
   11    12    14     1    129.45763          1471.83
   12    13    14     1     49.63386          6045.74
   12    14    13     1     65.31447          3935.95
   12    14    15     1    161.21975          1530.45
   12    14    16     1    126.70628          1595.88
   13    12    14     1     65.05172          3471.27
   13    14    15     1     96.54059          1316.33
   13    14    16     1    166.61984          1146.99
   14    15    16     1     54.33983          5758.00
   14    16    15     1     54.45839          6929.55
   15    14    16     1     71.20176          9210.29

[ dihedrals ]
;  ai    aj    ak    al  funct   phi0(deg)        k(kJ/mol)   mult
    1     2     3     4     1   -123.27482       12.895      1
    1     2     3     5     1     11.64763       17.680      1
    1     2     3     6     1     18.12355       13.614      1
    1     2     7     8     1   -115.70161       10.712      1
    1     2     8     7     1     67.37094        9.962      1
    1     2     8     9     1     27.90735        9.250      1
    1     2     8    10     1    -60.45300        9.965      1
    2     3     5     6     1   -166.48947       16.363      1
    2     3     6     5     1      8.04868       10.737      1
    2     7     8     9     1    -38.00108        9.320      1
    2     7     8    10     1    -92.06123        7.759      1
    2     8     9    10     1     78.00070        7.734      1
    2     8    10     9     1    -63.00976        8.517      1
    2     8    10    11     1    -55.03902       10.032      1
    2     8    10    12     1    -81.46428       14.912      1
    3     2     7     8     1     93.95201        9.304      1
    3     2     8     7     1    -44.93191        7.050      1
    3     2     8     9     1    -83.07350        8.510      1
    3     2     8    10     1   -171.07599        8.526      1
    4     3     2     7     1     25.15497       12.937      1
    4     3     2     8     1    -42.06702       10.789      1
    4     3     5     6     1    -31.34765       11.439      1
    4     3     6     5     1    127.26440       12.873      1
    5     3     2     7     1    156.23337       19.089      1
    5     3     2     8     1     89.11383       17.146      1
    6     3     2     7     1    169.80052       12.198      1
    6     3     2     8     1    102.09792        9.301      1
    7     2     8     9     1    140.97220        7.088      1
    7     2     8    10     1     52.21575        6.305      1
    7     8     9    10     1     40.89303        8.516      1
    7     8    10     9     1   -129.12734        8.542      1
    7     8    10    11     1   -122.09162       12.178      1
    7     8    10    12     1   -148.94348       17.010      1
    8     9    10    11     1     10.17525       12.103      1
    8     9    10    12     1    -13.02991       11.390      1
    8    10    11    12     1     25.22533       15.636      1
    8    10    12    11     1   -139.33494       16.166      1
    8    10    12    13     1     33.89796       15.058      1
    8    10    12    14     1     50.54535       17.004      1
    9     8    10    11     1   -171.89065       10.669      1
    9     8    10    12     1    161.85104       12.796      1
    9    10    11    12     1     33.80263       13.653      1
    9    10    12    11     1   -155.87050       10.756      1
    9    10    12    13     1     18.02678       10.809      1
    9    10    12    14     1     31.95093       13.598      1
   10    11    12    13     1    156.62747       24.866      1
   10    11    12    14     1     -8.71661       14.381      1
   10    12    13    14     1    -13.03037       10.068      1
   10    12    14    13     1    163.88265       12.217      1
   10    12    14    15     1    168.32064       23.223      1
   10    12    14    16     1    -18.19348       15.022      1
   11    10    12    13     1     -7.99395       12.200      1
   11    10    12    14     1      7.00866       14.407      1
   11    12    13    14     1     11.15113       26.050      1
   11    12    14    13     1     -5.87877       15.044      1
   11    12    14    15     1     -1.43308       21.557      1
   11    12    14    16     1    170.15549       15.064      1
   12    13    14    15     1      2.91963        9.984      1
   12    13    14    16     1      5.40710       27.036      1
   12    14    15    16     1     -5.52102       22.240      1
   12    14    16    15     1      2.95515       11.507      1
   13    12    14    15     1   -173.24511       21.587      1
   13    12    14    16     1     -1.12729       12.919      1
   13    14    15    16     1     -1.11164       11.441      1
   13    14    16    15     1    176.91225       28.847      1
