[ moleculetype ]
; name        nrexcl
res           1

[ atoms ]
;    nr  type  resnr resid  atom  cgnr     charge       mass
      1 TN6a      1 res   C1        1      0.000     36.000
      2 SX4e      1 res   C2        2      0.000     54.000
      3 TC5       1 res   C3        3      0.000     36.000
      4 TC5       1 res   C4        4      0.000     36.000
      5 SX4e      1 res   C5        5      0.000     54.000

[ constraints ]
;  ai    aj   funct      b0(nm)
    1     2     1      0.17749
    4     5     1      0.19453
    1     4     1      0.24941
    3     4     1      0.25248
    1     3     1      0.24881

[ bonds ]
;  ai    aj   funct      b0(nm)          k(kJ/mol/nm^2)

[ angles ]
;  ai    aj    ak  funct     th0(deg)        k(kJ/mol/rad^2)
    1     3     4     1     59.66681          6359.35
    1     4     3     1     59.44003          4610.61
    1     4     5     1     80.40390          3108.14
    2     1     3     1     94.65215           773.20
    2     1     4     1    155.32632           859.15
    3     1     4     1     60.89318          6940.43
    3     4     5     1    139.69313          2550.26

[ dihedrals ]
;  ai    aj    ak    al  funct   phi0(deg)        k(kJ/mol)   mult
    1     3     4     5     1    178.95945       11.436      1
    2     1     3     4     1      0.77599        7.039      1
    2     1     4     3     1   -178.13544       13.638      1
    2     1     4     5     1      0.04761       13.604      1
    3     1     4     5     1     -1.02792        8.488      1
