[ moleculetype ]
; name        nrexcl
res           1

[ atoms ]
;    nr  type  resnr resid  atom  cgnr     charge       mass
      1 TN6a      1 res   C1        1      0.000     36.000
      2 SX4e      1 res   C2        2      0.000     54.000
      3 TC5       1 res   C3        3      0.000     36.000
      4 TC5       1 res   C4        4      0.000     36.000
      5 SX4e      1 res   C5        5      0.000     54.000

[ constraints ]
;  ai    aj   funct      b0(nm)
    1     2     1      0.17734
    4     5     1      0.19462
    1     4     1      0.24905
    3     4     1      0.25219
    1     3     1      0.24864

[ bonds ]
;  ai    aj   funct      b0(nm)          k(kJ/mol/nm^2)

[ angles ]
;  ai    aj    ak  funct     th0(deg)        k(kJ/mol/rad^2)
    1     3     4     1     59.63464          5513.70
    1     4     3     1     59.47923          4358.27
    1     4     5     1     80.29368          2658.91
    2     1     3     1     94.50326          1303.90
    2     1     4     1    154.37472          1122.80
    3     1     4     1     60.88612          5391.77
    3     4     5     1    138.96847          1727.15

[ dihedrals ]
;  ai    aj    ak    al  funct   phi0(deg)        k(kJ/mol)   mult
    1     3     4     5     1   -178.00876       17.870      1
    2     1     3     4     1     -1.21884       11.520      1
    2     1     4     3     1    177.37419       22.132      1
    2     1     4     5     1     -1.45387       17.083      1
    3     1     4     5     1      1.95527       13.680      1
