Generated with MDTraj, t= 0.0
 83
    1UNL     C1    1   0.273  -0.413   0.096
    1UNL     C2    2   0.291  -0.272   0.044
    1UNL     C3    3   0.420  -0.253  -0.043
    1UNL     C4    4   0.418  -0.117  -0.119
    1UNL     O1    5   0.492  -0.016  -0.052
    1UNL     C5    6   0.270  -0.072  -0.147
    1UNL     C6    7   0.184  -0.196  -0.188
    1UNL     C7    8   0.163  -0.222  -0.036
    1UNL     O2    9   0.043  -0.293  -0.001
    1UNL     C8   10  -0.041  -0.229   0.093
    1UNL     O3   11  -0.138  -0.149   0.025
    1UNL     C9   12  -0.202  -0.230  -0.073
    1UNL    C10   13  -0.284  -0.151  -0.175
    1UNL     O4   14  -0.207  -0.058  -0.248
    1UNL    C11   15  -0.238   0.073  -0.205
    1UNL     O5   16  -0.240   0.081  -0.063
    1UNL    C12   17  -0.309   0.196  -0.012
    1UNL    C13   18  -0.292   0.192   0.139
    1UNL     O6   19  -0.311   0.061   0.186
    1UNL    C14   20  -0.261   0.328  -0.083
    1UNL     O7   21  -0.237   0.436   0.007
    1UNL    C15   22  -0.132   0.304  -0.165
    1UNL     O8   23  -0.095   0.423  -0.231
    1UNL    C16   24  -0.146   0.186  -0.265
    1UNL     O9   25  -0.018   0.137  -0.299
    1UNL    C17   26  -0.284  -0.346  -0.005
    1UNL    O10   27  -0.245  -0.471  -0.056
    1UNL    C18   28  -0.265  -0.346   0.149
    1UNL    O11   29  -0.319  -0.465   0.203
    1UNL    C19   30  -0.113  -0.339   0.181
    1UNL    O12   31  -0.056  -0.465   0.155
    1UNL    C20   32   0.181  -0.066  -0.017
    1UNL    C21   33   0.060   0.029  -0.031
    1UNL    O13   34   0.100   0.163  -0.016
    1UNL    C22   35   0.066   0.210   0.108
    1UNL    O14   36  -0.007   0.151   0.185
    1UNL    C23   37   0.125   0.340   0.147
    1UNL    C24   38   0.255   0.343   0.197
    1UNL    C25   39   0.312   0.462   0.235
    1UNL    C26   40   0.240   0.579   0.224
    1UNL    C27   41   0.112   0.577   0.174
    1UNL    C28   42   0.054   0.458   0.136
    1UNL    C29   43   0.263  -0.053   0.112
    1UNL    O15   44   0.296   0.052   0.162
    1UNL    O16   45   0.303  -0.178   0.154
    1UNL     H1   46   0.262  -0.484   0.014
    1UNL     H2   47   0.183  -0.418   0.157
    1UNL     H3   48   0.358  -0.443   0.157
    1UNL     H4   49   0.431  -0.337  -0.112
    1UNL     H5   50   0.506  -0.254   0.024
    1UNL     H6   51   0.469  -0.129  -0.215
    1UNL     H7   52   0.441   0.015   0.026
    1UNL     H8   53   0.260   0.016  -0.212
    1UNL     H9   54   0.091  -0.172  -0.241
    1UNL    H10   55   0.240  -0.276  -0.239
    1UNL    H11   56   0.022  -0.165   0.156
    1UNL    H12   57  -0.119  -0.278  -0.128
    1UNL    H13   58  -0.365  -0.099  -0.123
    1UNL    H14   59  -0.331  -0.219  -0.248
    1UNL    H15   60  -0.342   0.091  -0.238
    1UNL    H16   61  -0.415   0.178  -0.035
    1UNL    H17   62  -0.363   0.258   0.191
    1UNL    H18   63  -0.191   0.223   0.167
    1UNL    H19   64  -0.254  -0.000   0.132
    1UNL    H20   65  -0.338   0.362  -0.154
    1UNL    H21   66  -0.320   0.458   0.055
    1UNL    H22   67  -0.050   0.279  -0.096
    1UNL    H23   68  -0.111   0.497  -0.169
    1UNL    H24   69  -0.191   0.224  -0.358
    1UNL    H25   70   0.041   0.213  -0.319
    1UNL    H26   71  -0.391  -0.332  -0.028
    1UNL    H27   72  -0.292  -0.541  -0.005
    1UNL    H28   73  -0.318  -0.261   0.195
    1UNL    H29   74  -0.246  -0.528   0.221
    1UNL    H30   75  -0.098  -0.320   0.288
    1UNL    H31   76  -0.058  -0.477   0.057
    1UNL    H32   77   0.011   0.019  -0.128
    1UNL    H33   78  -0.017   0.009   0.044
    1UNL    H34   79   0.307   0.249   0.205
    1UNL    H35   80   0.413   0.463   0.274
    1UNL    H36   81   0.285   0.672   0.254
    1UNL    H37   82   0.056   0.669   0.165
    1UNL    H38   83  -0.046   0.456   0.097
   0.00000   0.00000   0.00000   0.00000   0.00000   0.00000   0.00000   0.00000   0.00000
Generated with MDTraj, t= 1.0
 83
    1UNL     C1    1   0.278  -0.404   0.097
    1UNL     C2    2   0.287  -0.258   0.046
    1UNL     C3    3   0.422  -0.231  -0.022
    1UNL     C4    4   0.416  -0.102  -0.108
    1UNL     O1    5   0.489   0.008  -0.052
    1UNL     C5    6   0.273  -0.065  -0.143
    1UNL     C6    7   0.193  -0.196  -0.195
    1UNL     C7    8   0.161  -0.221  -0.039
    1UNL     O2    9   0.047  -0.296  -0.012
    1UNL     C8   10  -0.033  -0.242   0.086
    1UNL     O3   11  -0.136  -0.164   0.027
    1UNL     C9   12  -0.216  -0.238  -0.066
    1UNL    C10   13  -0.285  -0.149  -0.167
    1UNL     O4   14  -0.203  -0.060  -0.234
    1UNL    C11   15  -0.237   0.073  -0.201
    1UNL     O5   16  -0.242   0.086  -0.062
    1UNL    C12   17  -0.310   0.204  -0.020
    1UNL    C13   18  -0.301   0.192   0.141
    1UNL     O6   19  -0.322   0.064   0.180
    1UNL    C14   20  -0.253   0.335  -0.083
    1UNL     O7   21  -0.220   0.441   0.005
    1UNL    C15   22  -0.127   0.304  -0.169
    1UNL     O8   23  -0.100   0.414  -0.259
    1UNL    C16   24  -0.146   0.181  -0.265
    1UNL     O9   25  -0.015   0.141  -0.312
    1UNL    C17   26  -0.294  -0.348   0.010
    1UNL    O10   27  -0.272  -0.472  -0.043
    1UNL    C18   28  -0.253  -0.354   0.155
    1UNL    O11   29  -0.312  -0.468   0.210
    1UNL    C19   30  -0.097  -0.350   0.171
    1UNL    O12   31  -0.041  -0.473   0.143
    1UNL    C20   32   0.175  -0.062  -0.024
    1UNL    C21   33   0.049   0.030  -0.034
    1UNL    O13   34   0.087   0.166  -0.029
    1UNL    C22   35   0.064   0.210   0.103
    1UNL    O14   36  -0.006   0.141   0.175
    1UNL    C23   37   0.133   0.334   0.149
    1UNL    C24   38   0.263   0.321   0.204
    1UNL    C25   39   0.318   0.442   0.246
    1UNL    C26   40   0.253   0.562   0.234
    1UNL    C27   41   0.124   0.567   0.185
    1UNL    C28   42   0.067   0.455   0.140
    1UNL    C29   43   0.245  -0.044   0.113
    1UNL    O15   44   0.278   0.066   0.157
    1UNL    O16   45   0.283  -0.169   0.156
    1UNL     H1   46   0.282  -0.463   0.001
    1UNL     H2   47   0.176  -0.426   0.142
    1UNL     H3   48   0.360  -0.430   0.152
    1UNL     H4   49   0.453  -0.312  -0.084
    1UNL     H5   50   0.495  -0.232   0.060
    1UNL     H6   51   0.472  -0.131  -0.194
    1UNL     H7   52   0.441   0.025   0.034
    1UNL     H8   53   0.259   0.028  -0.202
    1UNL     H9   54   0.099  -0.170  -0.247
    1UNL    H10   55   0.263  -0.255  -0.249
    1UNL    H11   56   0.032  -0.180   0.151
    1UNL    H12   57  -0.145  -0.293  -0.127
    1UNL    H13   58  -0.362  -0.084  -0.118
    1UNL    H14   59  -0.333  -0.203  -0.249
    1UNL    H15   60  -0.340   0.080  -0.234
    1UNL    H16   61  -0.423   0.206  -0.031
    1UNL    H17   62  -0.369   0.248   0.202
    1UNL    H18   63  -0.200   0.212   0.169
    1UNL    H19   64  -0.265  -0.007   0.138
    1UNL    H20   65  -0.329   0.391  -0.146
    1UNL    H21   66  -0.307   0.466   0.044
    1UNL    H22   67  -0.032   0.307  -0.115
    1UNL    H23   68  -0.125   0.503  -0.211
    1UNL    H24   69  -0.203   0.216  -0.351
    1UNL    H25   70   0.037   0.215  -0.334
    1UNL    H26   71  -0.400  -0.332  -0.003
    1UNL    H27   72  -0.322  -0.536   0.014
    1UNL    H28   73  -0.292  -0.274   0.213
    1UNL    H29   74  -0.255  -0.511   0.277
    1UNL    H30   75  -0.075  -0.338   0.276
    1UNL    H31   76  -0.063  -0.492   0.051
    1UNL    H32   77   0.004   0.004  -0.135
    1UNL    H33   78  -0.033   0.002   0.030
    1UNL    H34   79   0.323   0.224   0.200
    1UNL    H35   80   0.424   0.439   0.268
    1UNL    H36   81   0.306   0.647   0.283
    1UNL    H37   82   0.075   0.666   0.168
    1UNL    H38   83  -0.014   0.463   0.077
   0.00000   0.00000   0.00000   0.00000   0.00000   0.00000   0.00000   0.00000   0.00000
Generated with MDTraj, t= 2.0
 83
    1UNL     C1    1   0.281  -0.418   0.079
    1UNL     C2    2   0.297  -0.270   0.039
    1UNL     C3    3   0.431  -0.242  -0.043
    1UNL     C4    4   0.421  -0.097  -0.111
    1UNL     O1    5   0.486  -0.004  -0.023
    1UNL     C5    6   0.276  -0.063  -0.146
    1UNL     C6    7   0.192  -0.190  -0.186
    1UNL     C7    8   0.166  -0.217  -0.042
    1UNL     O2    9   0.049  -0.286  -0.014
    1UNL     C8   10  -0.033  -0.233   0.094
    1UNL     O3   11  -0.144  -0.147   0.042
    1UNL     C9   12  -0.216  -0.221  -0.056
    1UNL    C10   13  -0.298  -0.148  -0.161
    1UNL     O4   14  -0.225  -0.067  -0.246
    1UNL    C11   15  -0.245   0.071  -0.209
    1UNL     O5   16  -0.233   0.082  -0.069
    1UNL    C12   17  -0.302   0.197  -0.017
    1UNL    C13   18  -0.289   0.205   0.131
    1UNL     O6   19  -0.310   0.071   0.185
    1UNL    C14   20  -0.259   0.323  -0.089
    1UNL     O7   21  -0.216   0.435  -0.005
    1UNL    C15   22  -0.129   0.295  -0.183
    1UNL     O8   23  -0.100   0.414  -0.257
    1UNL    C16   24  -0.157   0.176  -0.280
    1UNL     O9   25  -0.035   0.130  -0.330
    1UNL    C17   26  -0.295  -0.337   0.019
    1UNL    O10   27  -0.283  -0.458  -0.049
    1UNL    C18   28  -0.250  -0.360   0.164
    1UNL    O11   29  -0.308  -0.476   0.218
    1UNL    C19   30  -0.091  -0.358   0.172
    1UNL    O12   31  -0.038  -0.480   0.120
    1UNL    C20   32   0.179  -0.065  -0.015
    1UNL    C21   33   0.057   0.027  -0.026
    1UNL    O13   34   0.102   0.163  -0.015
    1UNL    C22   35   0.057   0.218   0.107
    1UNL    O14   36  -0.020   0.156   0.179
    1UNL    C23   37   0.128   0.345   0.150
    1UNL    C24   38   0.248   0.335   0.214
    1UNL    C25   39   0.316   0.448   0.254
    1UNL    C26   40   0.255   0.569   0.241
    1UNL    C27   41   0.129   0.578   0.185
    1UNL    C28   42   0.063   0.468   0.136
    1UNL    C29   43   0.255  -0.058   0.115
    1UNL    O15   44   0.272   0.047   0.175
    1UNL    O16   45   0.309  -0.175   0.154
    1UNL     H1   46   0.281  -0.494  -0.002
    1UNL     H2   47   0.175  -0.416   0.116
    1UNL     H3   48   0.357  -0.435   0.151
    1UNL     H4   49   0.459  -0.315  -0.112
    1UNL     H5   50   0.521  -0.238   0.019
    1UNL     H6   51   0.490  -0.097  -0.194
    1UNL     H7   52   0.419   0.029   0.040
    1UNL     H8   53   0.263   0.033  -0.203
    1UNL     H9   54   0.105  -0.163  -0.245
    1UNL    H10   55   0.254  -0.261  -0.230
    1UNL    H11   56   0.037  -0.176   0.161
    1UNL    H12   57  -0.143  -0.270  -0.117
    1UNL    H13   58  -0.379  -0.080  -0.115
    1UNL    H14   59  -0.349  -0.216  -0.231
    1UNL    H15   60  -0.346   0.080  -0.237
    1UNL    H16   61  -0.408   0.163  -0.048
    1UNL    H17   62  -0.365   0.266   0.170
    1UNL    H18   63  -0.192   0.233   0.161
    1UNL    H19   64  -0.253   0.011   0.125
    1UNL    H20   65  -0.338   0.361  -0.161
    1UNL    H21   66  -0.292   0.477   0.040
    1UNL    H22   67  -0.038   0.281  -0.126
    1UNL    H23   68  -0.115   0.490  -0.193
    1UNL    H24   69  -0.213   0.209  -0.368
    1UNL    H25   70   0.007   0.203  -0.364
    1UNL    H26   71  -0.397  -0.316   0.003
    1UNL    H27   72  -0.331  -0.517   0.011
    1UNL    H28   73  -0.285  -0.283   0.228
    1UNL    H29   74  -0.262  -0.565   0.214
    1UNL    H30   75  -0.050  -0.360   0.268
    1UNL    H31   76  -0.080  -0.486   0.027
    1UNL    H32   77   0.021   0.004  -0.133
    1UNL    H33   78  -0.028  -0.002   0.036
    1UNL    H34   79   0.289   0.239   0.218
    1UNL    H35   80   0.410   0.439   0.307
    1UNL    H36   81   0.292   0.662   0.274
    1UNL    H37   82   0.091   0.674   0.174
    1UNL    H38   83  -0.046   0.473   0.097
   0.00000   0.00000   0.00000   0.00000   0.00000   0.00000   0.00000   0.00000   0.00000
Generated with MDTraj, t= 3.0
 83
    1UNL     C1    1   0.256  -0.418   0.062
    1UNL     C2    2   0.291  -0.272   0.031
    1UNL     C3    3   0.423  -0.254  -0.051
    1UNL     C4    4   0.429  -0.105  -0.112
    1UNL     O1    5   0.511  -0.026  -0.024
    1UNL     C5    6   0.284  -0.048  -0.129
    1UNL     C6    7   0.192  -0.156  -0.191
    1UNL     C7    8   0.171  -0.210  -0.047
    1UNL     O2    9   0.043  -0.280  -0.030
    1UNL     C8   10  -0.037  -0.235   0.083
    1UNL     O3   11  -0.143  -0.152   0.022
    1UNL     C9   12  -0.213  -0.238  -0.068
    1UNL    C10   13  -0.299  -0.156  -0.163
    1UNL     O4   14  -0.222  -0.066  -0.240
    1UNL    C11   15  -0.260   0.067  -0.201
    1UNL     O5   16  -0.244   0.091  -0.064
    1UNL    C12   17  -0.317   0.211  -0.021
    1UNL    C13   18  -0.296   0.216   0.130
    1UNL     O6   19  -0.307   0.077   0.175
    1UNL    C14   20  -0.258   0.332  -0.096
    1UNL     O7   21  -0.221   0.445  -0.011
    1UNL    C15   22  -0.136   0.293  -0.184
    1UNL     O8   23  -0.083   0.400  -0.260
    1UNL    C16   24  -0.172   0.171  -0.277
    1UNL     O9   25  -0.048   0.109  -0.313
    1UNL    C17   26  -0.301  -0.346   0.014
    1UNL    O10   27  -0.283  -0.474  -0.045
    1UNL    C18   28  -0.247  -0.358   0.165
    1UNL    O11   29  -0.296  -0.473   0.224
    1UNL    C19   30  -0.086  -0.362   0.164
    1UNL    O12   31  -0.036  -0.485   0.117
    1UNL    C20   32   0.187  -0.064  -0.003
    1UNL    C21   33   0.061   0.027  -0.014
    1UNL    O13   34   0.108   0.164  -0.004
    1UNL    C22   35   0.065   0.222   0.116
    1UNL    O14   36  -0.007   0.164   0.196
    1UNL    C23   37   0.130   0.351   0.150
    1UNL    C24   38   0.248   0.357   0.220
    1UNL    C25   39   0.307   0.473   0.262
    1UNL    C26   40   0.238   0.589   0.241
    1UNL    C27   41   0.124   0.588   0.168
    1UNL    C28   42   0.066   0.473   0.127
    1UNL    C29   43   0.263  -0.070   0.129
    1UNL    O15   44   0.290   0.026   0.199
    1UNL    O16   45   0.313  -0.196   0.152
    1UNL     H1   46   0.206  -0.467  -0.020
    1UNL     H2   47   0.171  -0.412   0.132
    1UNL     H3   48   0.349  -0.479   0.093
    1UNL     H4   49   0.431  -0.320  -0.133
    1UNL     H5   50   0.512  -0.271   0.007
    1UNL     H6   51   0.473  -0.093  -0.213
    1UNL     H7   52   0.447   0.011   0.041
    1UNL     H8   53   0.279   0.057  -0.171
    1UNL     H9   54   0.106  -0.132  -0.245
    1UNL    H10   55   0.241  -0.224  -0.259
    1UNL    H11   56   0.012  -0.163   0.157
    1UNL    H12   57  -0.143  -0.290  -0.131
    1UNL    H13   58  -0.378  -0.096  -0.100
    1UNL    H14   59  -0.360  -0.219  -0.232
    1UNL    H15   60  -0.360   0.070  -0.227
    1UNL    H16   61  -0.421   0.177  -0.053
    1UNL    H17   62  -0.360   0.283   0.180
    1UNL    H18   63  -0.193   0.237   0.147
    1UNL    H19   64  -0.240   0.021   0.118
    1UNL    H20   65  -0.342   0.367  -0.163
    1UNL    H21   66  -0.301   0.493   0.019
    1UNL    H22   67  -0.066   0.253  -0.108
    1UNL    H23   68  -0.099   0.480  -0.216
    1UNL    H24   69  -0.218   0.207  -0.370
    1UNL    H25   70  -0.003   0.176  -0.365
    1UNL    H26   71  -0.402  -0.320  -0.003
    1UNL    H27   72  -0.367  -0.515  -0.011
    1UNL    H28   73  -0.270  -0.278   0.230
    1UNL    H29   74  -0.247  -0.556   0.210
    1UNL    H30   75  -0.046  -0.355   0.259
    1UNL    H31   76  -0.064  -0.487   0.027
    1UNL    H32   77   0.012   0.013  -0.119
    1UNL    H33   78  -0.017   0.012   0.061
    1UNL    H34   79   0.285   0.260   0.256
    1UNL    H35   80   0.397   0.473   0.321
    1UNL    H36   81   0.286   0.685   0.271
    1UNL    H37   82   0.057   0.680   0.153
    1UNL    H38   83  -0.029   0.476   0.088
   0.00000   0.00000   0.00000   0.00000   0.00000   0.00000   0.00000   0.00000   0.00000
Generated with MDTraj, t= 4.0
 83
    1UNL     C1    1   0.269  -0.428   0.055
    1UNL     C2    2   0.289  -0.282   0.021
    1UNL     C3    3   0.421  -0.256  -0.054
    1UNL     C4    4   0.431  -0.104  -0.104
    1UNL     O1    5   0.505  -0.021  -0.015
    1UNL     C5    6   0.291  -0.057  -0.132
    1UNL     C6    7   0.201  -0.165  -0.204
    1UNL     C7    8   0.168  -0.216  -0.055
    1UNL     O2    9   0.037  -0.283  -0.037
    1UNL     C8   10  -0.043  -0.230   0.078
    1UNL     O3   11  -0.149  -0.153   0.022
    1UNL     C9   12  -0.229  -0.235  -0.060
    1UNL    C10   13  -0.320  -0.151  -0.156
    1UNL     O4   14  -0.239  -0.067  -0.246
    1UNL    C11   15  -0.262   0.066  -0.204
    1UNL     O5   16  -0.255   0.086  -0.063
    1UNL    C12   17  -0.316   0.200  -0.024
    1UNL    C13   18  -0.282   0.211   0.135
    1UNL     O6   19  -0.329   0.101   0.194
    1UNL    C14   20  -0.257   0.321  -0.101
    1UNL     O7   21  -0.228   0.436  -0.021
    1UNL    C15   22  -0.132   0.285  -0.172
    1UNL     O8   23  -0.080   0.395  -0.248
    1UNL    C16   24  -0.151   0.158  -0.265
    1UNL     O9   25  -0.021   0.098  -0.295
    1UNL    C17   26  -0.298  -0.353   0.019
    1UNL    O10   27  -0.267  -0.468  -0.049
    1UNL    C18   28  -0.247  -0.360   0.167
    1UNL    O11   29  -0.285  -0.483   0.218
    1UNL    C19   30  -0.091  -0.353   0.161
    1UNL    O12   31  -0.049  -0.476   0.106
    1UNL    C20   32   0.187  -0.063  -0.013
    1UNL    C21   33   0.072   0.036  -0.022
    1UNL    O13   34   0.121   0.169   0.007
    1UNL    C22   35   0.074   0.219   0.127
    1UNL    O14   36  -0.000   0.161   0.205
    1UNL    C23   37   0.131   0.356   0.161
    1UNL    C24   38   0.254   0.368   0.234
    1UNL    C25   39   0.299   0.493   0.266
    1UNL    C26   40   0.236   0.612   0.223
    1UNL    C27   41   0.119   0.602   0.156
    1UNL    C28   42   0.071   0.475   0.133
    1UNL    C29   43   0.256  -0.071   0.122
    1UNL    O15   44   0.287   0.024   0.188
    1UNL    O16   45   0.292  -0.200   0.140
    1UNL     H1   46   0.308  -0.485  -0.030
    1UNL     H2   47   0.166  -0.462   0.059
    1UNL     H3   48   0.342  -0.459   0.141
    1UNL     H4   49   0.429  -0.319  -0.140
    1UNL     H5   50   0.503  -0.270   0.008
    1UNL     H6   51   0.479  -0.089  -0.205
    1UNL     H7   52   0.474  -0.027   0.079
    1UNL     H8   53   0.290   0.044  -0.182
    1UNL     H9   54   0.115  -0.135  -0.247
    1UNL    H10   55   0.258  -0.220  -0.277
    1UNL    H11   56   0.001  -0.159   0.156
    1UNL    H12   57  -0.162  -0.288  -0.129
    1UNL    H13   58  -0.390  -0.090  -0.082
    1UNL    H14   59  -0.392  -0.216  -0.211
    1UNL    H15   60  -0.355   0.099  -0.232
    1UNL    H16   61  -0.426   0.201  -0.030
    1UNL    H17   62  -0.332   0.295   0.174
    1UNL    H18   63  -0.177   0.228   0.151
    1UNL    H19   64  -0.284   0.022   0.154
    1UNL    H20   65  -0.321   0.362  -0.183
    1UNL    H21   66  -0.304   0.496  -0.005
    1UNL    H22   67  -0.059   0.252  -0.093
    1UNL    H23   68  -0.104   0.489  -0.213
    1UNL    H24   69  -0.184   0.197  -0.364
    1UNL    H25   70   0.043   0.157  -0.354
    1UNL    H26   71  -0.401  -0.337   0.003
    1UNL    H27   72  -0.315  -0.534   0.006
    1UNL    H28   73  -0.279  -0.284   0.232
    1UNL    H29   74  -0.215  -0.555   0.203
    1UNL    H30   75  -0.055  -0.362   0.257
    1UNL    H31   76  -0.080  -0.487   0.007
    1UNL    H32   77   0.024   0.053  -0.127
    1UNL    H33   78  -0.002   0.013   0.054
    1UNL    H34   79   0.294   0.277   0.278
    1UNL    H35   80   0.397   0.509   0.313
    1UNL    H36   81   0.289   0.700   0.240
    1UNL    H37   82   0.075   0.689   0.127
    1UNL    H38   83  -0.028   0.471   0.083
   0.00000   0.00000   0.00000   0.00000   0.00000   0.00000   0.00000   0.00000   0.00000
Generated with MDTraj, t= 5.0
 83
    1UNL     C1    1   0.266  -0.427   0.050
    1UNL     C2    2   0.286  -0.276   0.030
    1UNL     C3    3   0.416  -0.248  -0.049
    1UNL     C4    4   0.423  -0.094  -0.101
    1UNL     O1    5   0.500  -0.012  -0.021
    1UNL     C5    6   0.282  -0.047  -0.131
    1UNL     C6    7   0.191  -0.161  -0.195
    1UNL     C7    8   0.164  -0.212  -0.047
    1UNL     O2    9   0.048  -0.285  -0.034
    1UNL     C8   10  -0.038  -0.238   0.083
    1UNL     O3   11  -0.145  -0.157   0.036
    1UNL     C9   12  -0.221  -0.228  -0.064
    1UNL    C10   13  -0.317  -0.144  -0.153
    1UNL     O4   14  -0.240  -0.059  -0.238
    1UNL    C11   15  -0.263   0.073  -0.201
    1UNL     O5   16  -0.265   0.090  -0.055
    1UNL    C12   17  -0.315   0.214  -0.015
    1UNL    C13   18  -0.287   0.216   0.141
    1UNL     O6   19  -0.311   0.088   0.193
    1UNL    C14   20  -0.252   0.331  -0.101
    1UNL     O7   21  -0.215   0.450  -0.029
    1UNL    C15   22  -0.122   0.284  -0.171
    1UNL     O8   23  -0.067   0.390  -0.247
    1UNL    C16   24  -0.143   0.156  -0.255
    1UNL     O9   25  -0.017   0.094  -0.281
    1UNL    C17   26  -0.293  -0.352   0.006
    1UNL    O10   27  -0.281  -0.471  -0.066
    1UNL    C18   28  -0.243  -0.366   0.159
    1UNL    O11   29  -0.279  -0.493   0.213
    1UNL    C19   30  -0.090  -0.359   0.156
    1UNL    O12   31  -0.041  -0.475   0.101
    1UNL    C20   32   0.183  -0.058  -0.000
    1UNL    C21   33   0.061   0.029  -0.012
    1UNL    O13   34   0.099   0.162  -0.002
    1UNL    C22   35   0.069   0.218   0.116
    1UNL    O14   36  -0.003   0.165   0.198
    1UNL    C23   37   0.132   0.350   0.143
    1UNL    C24   38   0.254   0.362   0.218
    1UNL    C25   39   0.300   0.485   0.255
    1UNL    C26   40   0.227   0.600   0.226
    1UNL    C27   41   0.113   0.591   0.150
    1UNL    C28   42   0.060   0.468   0.110
    1UNL    C29   43   0.259  -0.070   0.129
    1UNL    O15   44   0.296   0.019   0.198
    1UNL    O16   45   0.292  -0.203   0.152
    1UNL     H1   46   0.188  -0.488  -0.012
    1UNL     H2   47   0.210  -0.434   0.148
    1UNL     H3   48   0.359  -0.485   0.056
    1UNL     H4   49   0.420  -0.315  -0.134
    1UNL     H5   50   0.499  -0.268   0.009
    1UNL     H6   51   0.482  -0.090  -0.198
    1UNL     H7   52   0.443   0.041   0.038
    1UNL     H8   53   0.272   0.054  -0.177
    1UNL     H9   54   0.102  -0.138  -0.243
    1UNL    H10   55   0.252  -0.233  -0.242
    1UNL    H11   56   0.014  -0.166   0.156
    1UNL    H12   57  -0.144  -0.272  -0.132
    1UNL    H13   58  -0.395  -0.085  -0.085
    1UNL    H14   59  -0.379  -0.216  -0.210
    1UNL    H15   60  -0.353   0.108  -0.234
    1UNL    H16   61  -0.421   0.207  -0.031
    1UNL    H17   62  -0.335   0.300   0.190
    1UNL    H18   63  -0.181   0.242   0.159
    1UNL    H19   64  -0.257   0.022   0.148
    1UNL    H20   65  -0.325   0.350  -0.180
    1UNL    H21   66  -0.297   0.503  -0.025
    1UNL    H22   67  -0.054   0.263  -0.085
    1UNL    H23   68  -0.094   0.475  -0.200
    1UNL    H24   69  -0.176   0.193  -0.356
    1UNL    H25   70   0.054   0.158  -0.330
    1UNL    H26   71  -0.396  -0.323   0.003
    1UNL    H27   72  -0.330  -0.541  -0.017
    1UNL    H28   73  -0.273  -0.290   0.228
    1UNL    H29   74  -0.210  -0.560   0.214
    1UNL    H30   75  -0.049  -0.365   0.250
    1UNL    H31   76  -0.073  -0.491   0.015
    1UNL    H32   77   0.004  -0.002  -0.111
    1UNL    H33   78  -0.003   0.024   0.075
    1UNL    H34   79   0.321   0.278   0.217
    1UNL    H35   80   0.393   0.487   0.307
    1UNL    H36   81   0.256   0.702   0.257
    1UNL    H37   82   0.072   0.689   0.106
    1UNL    H38   83  -0.034   0.463   0.052
   0.00000   0.00000   0.00000   0.00000   0.00000   0.00000   0.00000   0.00000   0.00000
Generated with MDTraj, t= 6.0
 83
    1UNL     C1    1   0.280  -0.414   0.067
    1UNL     C2    2   0.295  -0.273   0.028
    1UNL     C3    3   0.423  -0.244  -0.062
    1UNL     C4    4   0.421  -0.089  -0.109
    1UNL     O1    5   0.487  -0.009  -0.017
    1UNL     C5    6   0.272  -0.051  -0.133
    1UNL     C6    7   0.190  -0.172  -0.192
    1UNL     C7    8   0.163  -0.215  -0.042
    1UNL     O2    9   0.050  -0.291  -0.021
    1UNL     C8   10  -0.037  -0.247   0.098
    1UNL     O3   11  -0.138  -0.166   0.049
    1UNL     C9   12  -0.215  -0.235  -0.055
    1UNL    C10   13  -0.297  -0.143  -0.145
    1UNL     O4   14  -0.231  -0.059  -0.233
    1UNL    C11   15  -0.248   0.077  -0.201
    1UNL     O5   16  -0.243   0.096  -0.053
    1UNL    C12   17  -0.310   0.215  -0.013
    1UNL    C13   18  -0.286   0.233   0.132
    1UNL     O6   19  -0.299   0.102   0.191
    1UNL    C14   20  -0.259   0.336  -0.100
    1UNL     O7   21  -0.222   0.447  -0.021
    1UNL    C15   22  -0.123   0.294  -0.181
    1UNL     O8   23  -0.068   0.404  -0.247
    1UNL    C16   24  -0.146   0.172  -0.268
    1UNL     O9   25  -0.021   0.114  -0.294
    1UNL    C17   26  -0.297  -0.363   0.005
    1UNL    O10   27  -0.289  -0.479  -0.071
    1UNL    C18   28  -0.257  -0.377   0.157
    1UNL    O11   29  -0.290  -0.509   0.200
    1UNL    C19   30  -0.097  -0.378   0.161
    1UNL    O12   31  -0.046  -0.496   0.103
    1UNL    C20   32   0.183  -0.063  -0.006
    1UNL    C21   33   0.058   0.028  -0.008
    1UNL    O13   34   0.083   0.171  -0.003
    1UNL    C22   35   0.060   0.219   0.122
    1UNL    O14   36  -0.009   0.157   0.204
    1UNL    C23   37   0.125   0.353   0.154
    1UNL    C24   38   0.251   0.355   0.201
    1UNL    C25   39   0.313   0.475   0.239
    1UNL    C26   40   0.248   0.590   0.211
    1UNL    C27   41   0.117   0.590   0.148
    1UNL    C28   42   0.056   0.472   0.114
    1UNL    C29   43   0.251  -0.066   0.129
    1UNL    O15   44   0.269   0.029   0.198
    1UNL    O16   45   0.304  -0.190   0.150
    1UNL     H1   46   0.328  -0.496  -0.003
    1UNL     H2   47   0.168  -0.440   0.057
    1UNL     H3   48   0.323  -0.438   0.161
    1UNL     H4   49   0.431  -0.304  -0.149
    1UNL     H5   50   0.510  -0.259  -0.005
    1UNL     H6   51   0.483  -0.082  -0.203
    1UNL     H7   52   0.457  -0.019   0.076
    1UNL     H8   53   0.251   0.046  -0.186
    1UNL     H9   54   0.107  -0.156  -0.255
    1UNL    H10   55   0.246  -0.242  -0.242
    1UNL    H11   56   0.021  -0.179   0.174
    1UNL    H12   57  -0.127  -0.276  -0.115
    1UNL    H13   58  -0.369  -0.081  -0.076
    1UNL    H14   59  -0.364  -0.203  -0.205
    1UNL    H15   60  -0.346   0.098  -0.220
    1UNL    H16   61  -0.410   0.189  -0.038
    1UNL    H17   62  -0.343   0.309   0.190
    1UNL    H18   63  -0.184   0.273   0.152
    1UNL    H19   64  -0.234   0.046   0.139
    1UNL    H20   65  -0.329   0.356  -0.180
    1UNL    H21   66  -0.298   0.504   0.006
    1UNL    H22   67  -0.044   0.271  -0.110
    1UNL    H23   68  -0.068   0.471  -0.182
    1UNL    H24   69  -0.189   0.209  -0.366
    1UNL    H25   70   0.042   0.169  -0.353
    1UNL    H26   71  -0.402  -0.334   0.001
    1UNL    H27   72  -0.330  -0.552  -0.020
    1UNL    H28   73  -0.304  -0.307   0.227
    1UNL    H29   74  -0.211  -0.564   0.233
    1UNL    H30   75  -0.068  -0.375   0.260
    1UNL    H31   76  -0.093  -0.506   0.010
    1UNL    H32   77   0.007   0.027  -0.114
    1UNL    H33   78  -0.010  -0.009   0.069
    1UNL    H34   79   0.298   0.260   0.217
    1UNL    H35   80   0.415   0.483   0.280
    1UNL    H36   81   0.290   0.680   0.246
    1UNL    H37   82   0.065   0.678   0.129
    1UNL    H38   83  -0.034   0.465   0.066
   0.00000   0.00000   0.00000   0.00000   0.00000   0.00000   0.00000   0.00000   0.00000
Generated with MDTraj, t= 7.0
 83
    1UNL     C1    1   0.288  -0.417   0.087
    1UNL     C2    2   0.289  -0.271   0.042
    1UNL     C3    3   0.418  -0.227  -0.041
    1UNL     C4    4   0.407  -0.083  -0.111
    1UNL     O1    5   0.474   0.014  -0.037
    1UNL     C5    6   0.254  -0.054  -0.138
    1UNL     C6    7   0.186  -0.185  -0.188
    1UNL     C7    8   0.166  -0.225  -0.039
    1UNL     O2    9   0.052  -0.299  -0.016
    1UNL     C8   10  -0.038  -0.258   0.097
    1UNL     O3   11  -0.131  -0.172   0.046
    1UNL     C9   12  -0.201  -0.238  -0.062
    1UNL    C10   13  -0.275  -0.149  -0.160
    1UNL     O4   14  -0.197  -0.054  -0.219
    1UNL    C11   15  -0.229   0.078  -0.187
    1UNL     O5   16  -0.227   0.101  -0.047
    1UNL    C12   17  -0.302   0.217  -0.011
    1UNL    C13   18  -0.285   0.238   0.136
    1UNL     O6   19  -0.336   0.125   0.200
    1UNL    C14   20  -0.257   0.341  -0.097
    1UNL     O7   21  -0.234   0.451  -0.023
    1UNL    C15   22  -0.126   0.309  -0.182
    1UNL     O8   23  -0.099   0.416  -0.263
    1UNL    C16   24  -0.148   0.181  -0.267
    1UNL     O9   25  -0.017   0.129  -0.298
    1UNL    C17   26  -0.283  -0.364   0.004
    1UNL    O10   27  -0.276  -0.481  -0.073
    1UNL    C18   28  -0.251  -0.379   0.158
    1UNL    O11   29  -0.297  -0.506   0.195
    1UNL    C19   30  -0.095  -0.387   0.164
    1UNL    O12   31  -0.053  -0.507   0.103
    1UNL    C20   32   0.169  -0.066  -0.011
    1UNL    C21   33   0.042   0.024  -0.006
    1UNL    O13   34   0.087   0.157   0.002
    1UNL    C22   35   0.060   0.212   0.127
    1UNL    O14   36  -0.025   0.161   0.199
    1UNL    C23   37   0.123   0.339   0.160
    1UNL    C24   38   0.256   0.335   0.197
    1UNL    C25   39   0.325   0.456   0.220
    1UNL    C26   40   0.262   0.577   0.200
    1UNL    C27   41   0.133   0.584   0.145
    1UNL    C28   42   0.069   0.461   0.128
    1UNL    C29   43   0.244  -0.061   0.124
    1UNL    O15   44   0.275   0.040   0.186
    1UNL    O16   45   0.294  -0.187   0.157
    1UNL     H1   46   0.227  -0.473   0.009
    1UNL     H2   47   0.223  -0.437   0.181
    1UNL     H3   48   0.385  -0.468   0.083
    1UNL     H4   49   0.449  -0.284  -0.123
    1UNL     H5   50   0.495  -0.228   0.035
    1UNL     H6   51   0.458  -0.081  -0.210
    1UNL     H7   52   0.418   0.054   0.032
    1UNL     H8   53   0.236   0.047  -0.182
    1UNL     H9   54   0.097  -0.166  -0.245
    1UNL    H10   55   0.246  -0.233  -0.255
    1UNL    H11   56   0.035  -0.204   0.171
    1UNL    H12   57  -0.111  -0.287  -0.109
    1UNL    H13   58  -0.352  -0.093  -0.096
    1UNL    H14   59  -0.332  -0.204  -0.231
    1UNL    H15   60  -0.330   0.086  -0.201
    1UNL    H16   61  -0.405   0.202  -0.025
    1UNL    H17   62  -0.341   0.326   0.181
    1UNL    H18   63  -0.183   0.263   0.177
    1UNL    H19   64  -0.286   0.049   0.165
    1UNL    H20   65  -0.339   0.367  -0.162
    1UNL    H21   66  -0.312   0.503   0.011
    1UNL    H22   67  -0.033   0.294  -0.126
    1UNL    H23   68  -0.070   0.500  -0.210
    1UNL    H24   69  -0.200   0.212  -0.366
    1UNL    H25   70   0.027   0.183  -0.363
    1UNL    H26   71  -0.391  -0.336  -0.003
    1UNL    H27   72  -0.340  -0.548  -0.040
    1UNL    H28   73  -0.301  -0.298   0.215
    1UNL    H29   74  -0.238  -0.574   0.160
    1UNL    H30   75  -0.068  -0.385   0.263
    1UNL    H31   76  -0.075  -0.503   0.009
    1UNL    H32   77  -0.008   0.004  -0.108
    1UNL    H33   78  -0.029  -0.002   0.071
    1UNL    H34   79   0.308   0.242   0.219
    1UNL    H35   80   0.422   0.439   0.262
    1UNL    H36   81   0.323   0.666   0.218
    1UNL    H37   82   0.071   0.676   0.148
    1UNL    H38   83  -0.038   0.461   0.089
   0.00000   0.00000   0.00000   0.00000   0.00000   0.00000   0.00000   0.00000   0.00000
Generated with MDTraj, t= 8.0
 83
    1UNL     C1    1   0.308  -0.408   0.081
    1UNL     C2    2   0.302  -0.267   0.033
    1UNL     C3    3   0.423  -0.226  -0.051
    1UNL     C4    4   0.409  -0.084  -0.117
    1UNL     O1    5   0.484   0.014  -0.056
    1UNL     C5    6   0.257  -0.053  -0.131
    1UNL     C6    7   0.178  -0.183  -0.181
    1UNL     C7    8   0.165  -0.226  -0.037
    1UNL     O2    9   0.056  -0.309  -0.008
    1UNL     C8   10  -0.035  -0.270   0.101
    1UNL     O3   11  -0.129  -0.179   0.045
    1UNL     C9   12  -0.197  -0.236  -0.063
    1UNL    C10   13  -0.275  -0.137  -0.139
    1UNL     O4   14  -0.194  -0.049  -0.206
    1UNL    C11   15  -0.232   0.085  -0.185
    1UNL     O5   16  -0.251   0.111  -0.050
    1UNL    C12   17  -0.322   0.234  -0.027
    1UNL    C13   18  -0.323   0.242   0.128
    1UNL     O6   19  -0.337   0.118   0.186
    1UNL    C14   20  -0.260   0.359  -0.104
    1UNL     O7   21  -0.232   0.459  -0.017
    1UNL    C15   22  -0.125   0.317  -0.173
    1UNL     O8   23  -0.094   0.423  -0.257
    1UNL    C16   24  -0.139   0.186  -0.257
    1UNL     O9   25  -0.005   0.135  -0.281
    1UNL    C17   26  -0.274  -0.362  -0.002
    1UNL    O10   27  -0.255  -0.484  -0.068
    1UNL    C18   28  -0.257  -0.384   0.152
    1UNL    O11   29  -0.315  -0.509   0.184
    1UNL    C19   30  -0.106  -0.394   0.175
    1UNL    O12   31  -0.054  -0.518   0.130
    1UNL    C20   32   0.166  -0.070  -0.002
    1UNL    C21   33   0.035   0.011  -0.003
    1UNL    O13   34   0.072   0.151  -0.014
    1UNL    C22   35   0.051   0.206   0.111
    1UNL    O14   36  -0.023   0.157   0.197
    1UNL    C23   37   0.118   0.337   0.142
    1UNL    C24   38   0.248   0.328   0.191
    1UNL    C25   39   0.325   0.441   0.219
    1UNL    C26   40   0.275   0.570   0.197
    1UNL    C27   41   0.146   0.578   0.153
    1UNL    C28   42   0.070   0.459   0.118
    1UNL    C29   43   0.251  -0.062   0.127
    1UNL    O15   44   0.270   0.042   0.189
    1UNL    O16   45   0.309  -0.180   0.152
    1UNL     H1   46   0.355  -0.474   0.008
    1UNL     H2   47   0.200  -0.444   0.089
    1UNL     H3   48   0.369  -0.416   0.181
    1UNL     H4   49   0.443  -0.300  -0.121
    1UNL     H5   50   0.512  -0.214   0.010
    1UNL     H6   51   0.456  -0.079  -0.216
    1UNL     H7   52   0.429   0.037   0.023
    1UNL     H8   53   0.236   0.048  -0.172
    1UNL     H9   54   0.092  -0.141  -0.227
    1UNL    H10   55   0.242  -0.237  -0.243
    1UNL    H11   56   0.020  -0.217   0.188
    1UNL    H12   57  -0.109  -0.274  -0.118
    1UNL    H13   58  -0.340  -0.084  -0.064
    1UNL    H14   59  -0.340  -0.183  -0.207
    1UNL    H15   60  -0.324   0.087  -0.229
    1UNL    H16   61  -0.424   0.218  -0.057
    1UNL    H17   62  -0.399   0.317   0.168
    1UNL    H18   63  -0.226   0.287   0.171
    1UNL    H19   64  -0.270   0.052   0.150
    1UNL    H20   65  -0.341   0.395  -0.167
    1UNL    H21   66  -0.315   0.490   0.026
    1UNL    H22   67  -0.048   0.304  -0.096
    1UNL    H23   68  -0.074   0.504  -0.201
    1UNL    H24   69  -0.168   0.201  -0.370
    1UNL    H25   70   0.043   0.199  -0.327
    1UNL    H26   71  -0.384  -0.338  -0.012
    1UNL    H27   72  -0.310  -0.557  -0.033
    1UNL    H28   73  -0.302  -0.297   0.209
    1UNL    H29   74  -0.241  -0.575   0.164
    1UNL    H30   75  -0.092  -0.395   0.277
    1UNL    H31   76  -0.083  -0.539   0.037
    1UNL    H32   77  -0.029  -0.020  -0.091
    1UNL    H33   78  -0.024  -0.018   0.079
    1UNL    H34   79   0.294   0.227   0.195
    1UNL    H35   80   0.426   0.420   0.253
    1UNL    H36   81   0.329   0.662   0.219
    1UNL    H37   82   0.099   0.678   0.147
    1UNL    H38   83  -0.032   0.463   0.097
   0.00000   0.00000   0.00000   0.00000   0.00000   0.00000   0.00000   0.00000   0.00000
Generated with MDTraj, t= 9.0
 83
    1UNL     C1    1   0.313  -0.427   0.062
    1UNL     C2    2   0.305  -0.274   0.027
    1UNL     C3    3   0.422  -0.238  -0.070
    1UNL     C4    4   0.398  -0.092  -0.123
    1UNL     O1    5   0.462   0.009  -0.044
    1UNL     C5    6   0.245  -0.070  -0.135
    1UNL     C6    7   0.161  -0.203  -0.184
    1UNL     C7    8   0.168  -0.236  -0.031
    1UNL     O2    9   0.059  -0.316   0.012
    1UNL     C8   10  -0.026  -0.263   0.107
    1UNL     O3   11  -0.125  -0.173   0.045
    1UNL     C9   12  -0.198  -0.233  -0.064
    1UNL    C10   13  -0.281  -0.139  -0.144
    1UNL     O4   14  -0.209  -0.047  -0.227
    1UNL    C11   15  -0.239   0.090  -0.190
    1UNL     O5   16  -0.265   0.105  -0.048
    1UNL    C12   17  -0.320   0.232  -0.019
    1UNL    C13   18  -0.319   0.251   0.134
    1UNL     O6   19  -0.361   0.132   0.191
    1UNL    C14   20  -0.260   0.352  -0.105
    1UNL     O7   21  -0.232   0.468  -0.028
    1UNL    C15   22  -0.119   0.303  -0.158
    1UNL     O8   23  -0.062   0.414  -0.224
    1UNL    C16   24  -0.130   0.185  -0.254
    1UNL     O9   25  -0.008   0.130  -0.283
    1UNL    C17   26  -0.272  -0.358  -0.008
    1UNL    O10   27  -0.236  -0.477  -0.078
    1UNL    C18   28  -0.249  -0.376   0.146
    1UNL    O11   29  -0.304  -0.504   0.178
    1UNL    C19   30  -0.098  -0.386   0.178
    1UNL    O12   31  -0.040  -0.511   0.137
    1UNL    C20   32   0.170  -0.082  -0.001
    1UNL    C21   33   0.047   0.011   0.005
    1UNL    O13   34   0.097   0.147   0.006
    1UNL    C22   35   0.044   0.212   0.115
    1UNL    O14   36  -0.053   0.179   0.183
    1UNL    C23   37   0.114   0.344   0.151
    1UNL    C24   38   0.241   0.344   0.205
    1UNL    C25   39   0.321   0.456   0.226
    1UNL    C26   40   0.273   0.582   0.184
    1UNL    C27   41   0.139   0.585   0.143
    1UNL    C28   42   0.057   0.470   0.126
    1UNL    C29   43   0.256  -0.070   0.122
    1UNL    O15   44   0.267   0.034   0.187
    1UNL    O16   45   0.326  -0.186   0.140
    1UNL     H1   46   0.253  -0.492  -0.004
    1UNL     H2   47   0.274  -0.437   0.168
    1UNL     H3   48   0.424  -0.466   0.071
    1UNL     H4   49   0.440  -0.310  -0.145
    1UNL     H5   50   0.511  -0.244  -0.009
    1UNL     H6   51   0.437  -0.074  -0.221
    1UNL     H7   52   0.406   0.012   0.037
    1UNL     H8   53   0.207   0.012  -0.196
    1UNL     H9   54   0.068  -0.179  -0.223
    1UNL    H10   55   0.219  -0.274  -0.241
    1UNL    H11   56   0.010  -0.193   0.185
    1UNL    H12   57  -0.116  -0.263  -0.128
    1UNL    H13   58  -0.346  -0.080  -0.080
    1UNL    H14   59  -0.351  -0.195  -0.197
    1UNL    H15   60  -0.326   0.107  -0.239
    1UNL    H16   61  -0.419   0.207  -0.061
    1UNL    H17   62  -0.387   0.338   0.158
    1UNL    H18   63  -0.212   0.282   0.155
    1UNL    H19   64  -0.315   0.051   0.158
    1UNL    H20   65  -0.312   0.376  -0.201
    1UNL    H21   66  -0.312   0.507   0.013
    1UNL    H22   67  -0.054   0.286  -0.070
    1UNL    H23   68  -0.060   0.482  -0.158
    1UNL    H24   69  -0.155   0.231  -0.361
    1UNL    H25   70   0.042   0.200  -0.315
    1UNL    H26   71  -0.385  -0.344  -0.020
    1UNL    H27   72  -0.294  -0.556  -0.065
    1UNL    H28   73  -0.295  -0.292   0.208
    1UNL    H29   74  -0.232  -0.566   0.170
    1UNL    H30   75  -0.081  -0.380   0.279
    1UNL    H31   76  -0.022  -0.508   0.041
    1UNL    H32   77  -0.016  -0.011  -0.084
    1UNL    H33   78  -0.022  -0.010   0.079
    1UNL    H34   79   0.282   0.249   0.221
    1UNL    H35   80   0.427   0.455   0.238
    1UNL    H36   81   0.330   0.672   0.188
    1UNL    H37   82   0.079   0.671   0.133
    1UNL    H38   83  -0.039   0.477   0.069
   0.00000   0.00000   0.00000   0.00000   0.00000   0.00000   0.00000   0.00000   0.00000
Generated with MDTraj, t= 10.0
 83
    1UNL     C1    1   0.280  -0.430   0.039
    1UNL     C2    2   0.297  -0.280   0.020
    1UNL     C3    3   0.419  -0.239  -0.068
    1UNL     C4    4   0.404  -0.093  -0.137
    1UNL     O1    5   0.482   0.000  -0.064
    1UNL     C5    6   0.251  -0.057  -0.138
    1UNL     C6    7   0.162  -0.174  -0.192
    1UNL     C7    8   0.161  -0.217  -0.043
    1UNL     O2    9   0.053  -0.312   0.000
    1UNL     C8   10  -0.035  -0.263   0.100
    1UNL     O3   11  -0.141  -0.181   0.048
    1UNL     C9   12  -0.200  -0.243  -0.065
    1UNL    C10   13  -0.284  -0.149  -0.150
    1UNL     O4   14  -0.187  -0.053  -0.200
    1UNL    C11   15  -0.229   0.082  -0.186
    1UNL     O5   16  -0.265   0.110  -0.045
    1UNL    C12   17  -0.328   0.236  -0.032
    1UNL    C13   18  -0.332   0.265   0.124
    1UNL     O6   19  -0.368   0.142   0.182
    1UNL    C14   20  -0.252   0.350  -0.103
    1UNL     O7   21  -0.230   0.466  -0.030
    1UNL    C15   22  -0.120   0.294  -0.151
    1UNL     O8   23  -0.042   0.395  -0.213
    1UNL    C16   24  -0.129   0.180  -0.252
    1UNL     O9   25   0.000   0.127  -0.264
    1UNL    C17   26  -0.276  -0.372  -0.015
    1UNL    O10   27  -0.226  -0.492  -0.070
    1UNL    C18   28  -0.256  -0.383   0.139
    1UNL    O11   29  -0.309  -0.504   0.179
    1UNL    C19   30  -0.108  -0.380   0.181
    1UNL    O12   31  -0.039  -0.505   0.157
    1UNL    C20   32   0.179  -0.069   0.005
    1UNL    C21   33   0.051   0.011   0.019
    1UNL    O13   34   0.095   0.148   0.015
    1UNL    C22   35   0.045   0.222   0.119
    1UNL    O14   36  -0.046   0.186   0.189
    1UNL    C23   37   0.116   0.348   0.144
    1UNL    C24   38   0.247   0.344   0.193
    1UNL    C25   39   0.310   0.465   0.223
    1UNL    C26   40   0.245   0.588   0.201
    1UNL    C27   41   0.117   0.592   0.147
    1UNL    C28   42   0.056   0.476   0.119
    1UNL    C29   43   0.269  -0.073   0.125
    1UNL    O15   44   0.309   0.028   0.179
    1UNL    O16   45   0.322  -0.201   0.142
    1UNL     H1   46   0.308  -0.472  -0.067
    1UNL     H2   47   0.175  -0.459   0.063
    1UNL     H3   48   0.346  -0.468   0.123
    1UNL     H4   49   0.441  -0.314  -0.144
    1UNL     H5   50   0.508  -0.241  -0.010
    1UNL     H6   51   0.449  -0.095  -0.235
    1UNL     H7   52   0.429   0.030   0.013
    1UNL     H8   53   0.237   0.035  -0.192
    1UNL     H9   54   0.067  -0.153  -0.228
    1UNL    H10   55   0.206  -0.246  -0.262
    1UNL    H11   56   0.013  -0.192   0.166
    1UNL    H12   57  -0.119  -0.266  -0.131
    1UNL    H13   58  -0.361  -0.100  -0.094
    1UNL    H14   59  -0.343  -0.186  -0.227
    1UNL    H15   60  -0.313   0.088  -0.242
    1UNL    H16   61  -0.436   0.229  -0.068
    1UNL    H17   62  -0.400   0.350   0.147
    1UNL    H18   63  -0.228   0.281   0.165
    1UNL    H19   64  -0.305   0.068   0.152
    1UNL    H20   65  -0.312   0.377  -0.196
    1UNL    H21   66  -0.320   0.499  -0.007
    1UNL    H22   67  -0.065   0.261  -0.064
    1UNL    H23   68  -0.045   0.480  -0.157
    1UNL    H24   69  -0.160   0.201  -0.364
    1UNL    H25   70   0.063   0.200  -0.286
    1UNL    H26   71  -0.390  -0.375  -0.037
    1UNL    H27   72  -0.256  -0.573  -0.023
    1UNL    H28   73  -0.320  -0.303   0.189
    1UNL    H29   74  -0.269  -0.534   0.268
    1UNL    H30   75  -0.087  -0.364   0.282
    1UNL    H31   76  -0.059  -0.538   0.069
    1UNL    H32   77  -0.024  -0.012  -0.059
    1UNL    H33   78   0.003  -0.016   0.106
    1UNL    H34   79   0.301   0.247   0.189
    1UNL    H35   80   0.417   0.468   0.253
    1UNL    H36   81   0.300   0.684   0.224
    1UNL    H37   82   0.065   0.690   0.142
    1UNL    H38   83  -0.045   0.464   0.097
   0.00000   0.00000   0.00000   0.00000   0.00000   0.00000   0.00000   0.00000   0.00000
Generated with MDTraj, t= 11.0
 83
    1UNL     C1    1   0.298  -0.427   0.058
    1UNL     C2    2   0.305  -0.283   0.013
    1UNL     C3    3   0.412  -0.252  -0.096
    1UNL     C4    4   0.395  -0.105  -0.148
    1UNL     O1    5   0.472  -0.020  -0.066
    1UNL     C5    6   0.243  -0.065  -0.144
    1UNL     C6    7   0.150  -0.182  -0.187
    1UNL     C7    8   0.160  -0.227  -0.036
    1UNL     O2    9   0.054  -0.313   0.006
    1UNL     C8   10  -0.034  -0.257   0.103
    1UNL     O3   11  -0.135  -0.177   0.048
    1UNL     C9   12  -0.198  -0.235  -0.060
    1UNL    C10   13  -0.286  -0.140  -0.144
    1UNL     O4   14  -0.197  -0.055  -0.219
    1UNL    C11   15  -0.225   0.082  -0.202
    1UNL     O5   16  -0.255   0.109  -0.062
    1UNL    C12   17  -0.323   0.229  -0.045
    1UNL    C13   18  -0.313   0.253   0.115
    1UNL     O6   19  -0.376   0.137   0.169
    1UNL    C14   20  -0.251   0.348  -0.115
    1UNL     O7   21  -0.240   0.462  -0.034
    1UNL    C15   22  -0.117   0.300  -0.158
    1UNL     O8   23  -0.047   0.408  -0.223
    1UNL    C16   24  -0.118   0.181  -0.259
    1UNL     O9   25   0.006   0.113  -0.253
    1UNL    C17   26  -0.282  -0.358   0.004
    1UNL    O10   27  -0.246  -0.479  -0.067
    1UNL    C18   28  -0.249  -0.385   0.153
    1UNL    O11   29  -0.299  -0.506   0.188
    1UNL    C19   30  -0.099  -0.386   0.179
    1UNL    O12   31  -0.043  -0.511   0.142
    1UNL    C20   32   0.176  -0.072   0.003
    1UNL    C21   33   0.055   0.025   0.018
    1UNL    O13   34   0.109   0.158   0.031
    1UNL    C22   35   0.046   0.228   0.131
    1UNL    O14   36  -0.040   0.180   0.198
    1UNL    C23   37   0.112   0.356   0.160
    1UNL    C24   38   0.252   0.360   0.192
    1UNL    C25   39   0.313   0.479   0.217
    1UNL    C26   40   0.239   0.598   0.208
    1UNL    C27   41   0.102   0.597   0.169
    1UNL    C28   42   0.047   0.477   0.152
    1UNL    C29   43   0.266  -0.078   0.127
    1UNL    O15   44   0.297   0.023   0.186
    1UNL    O16   45   0.334  -0.197   0.131
    1UNL     H1   46   0.226  -0.485  -0.018
    1UNL     H2   47   0.254  -0.425   0.163
    1UNL     H3   48   0.398  -0.471   0.079
    1UNL     H4   49   0.419  -0.326  -0.178
    1UNL     H5   50   0.507  -0.258  -0.051
    1UNL     H6   51   0.433  -0.099  -0.250
    1UNL     H7   52   0.430   0.011   0.018
    1UNL     H8   53   0.228   0.022  -0.205
    1UNL     H9   54   0.048  -0.160  -0.216
    1UNL    H10   55   0.184  -0.257  -0.255
    1UNL    H11   56   0.023  -0.193   0.166
    1UNL    H12   57  -0.129  -0.269  -0.132
    1UNL    H13   58  -0.360  -0.075  -0.097
    1UNL    H14   59  -0.352  -0.185  -0.210
    1UNL    H15   60  -0.311   0.100  -0.251
    1UNL    H16   61  -0.433   0.226  -0.080
    1UNL    H17   62  -0.380   0.328   0.154
    1UNL    H18   63  -0.212   0.261   0.154
    1UNL    H19   64  -0.325   0.064   0.132
    1UNL    H20   65  -0.312   0.379  -0.205
    1UNL    H21   66  -0.327   0.505  -0.016
    1UNL    H22   67  -0.058   0.273  -0.075
    1UNL    H23   68  -0.060   0.495  -0.182
    1UNL    H24   69  -0.149   0.229  -0.360
    1UNL    H25   70   0.081   0.171  -0.299
    1UNL    H26   71  -0.397  -0.349  -0.010
    1UNL    H27   72  -0.271  -0.562  -0.020
    1UNL    H28   73  -0.304  -0.309   0.213
    1UNL    H29   74  -0.227  -0.575   0.192
    1UNL    H30   75  -0.077  -0.376   0.281
    1UNL    H31   76  -0.021  -0.507   0.044
    1UNL    H32   77  -0.015   0.001  -0.067
    1UNL    H33   78  -0.006   0.009   0.104
    1UNL    H34   79   0.307   0.270   0.191
    1UNL    H35   80   0.417   0.477   0.232
    1UNL    H36   81   0.282   0.690   0.230
    1UNL    H37   82   0.055   0.690   0.185
    1UNL    H38   83  -0.066   0.466   0.151
   0.00000   0.00000   0.00000   0.00000   0.00000   0.00000   0.00000   0.00000   0.00000
Generated with MDTraj, t= 12.0
 83
    1UNL     C1    1   0.305  -0.428   0.048
    1UNL     C2    2   0.303  -0.277   0.013
    1UNL     C3    3   0.409  -0.243  -0.089
    1UNL     C4    4   0.395  -0.101  -0.150
    1UNL     O1    5   0.479  -0.009  -0.089
    1UNL     C5    6   0.244  -0.054  -0.143
    1UNL     C6    7   0.150  -0.176  -0.187
    1UNL     C7    8   0.160  -0.222  -0.034
    1UNL     O2    9   0.055  -0.303   0.014
    1UNL     C8   10  -0.035  -0.251   0.113
    1UNL     O3   11  -0.129  -0.168   0.051
    1UNL     C9   12  -0.197  -0.233  -0.050
    1UNL    C10   13  -0.269  -0.146  -0.154
    1UNL     O4   14  -0.176  -0.057  -0.213
    1UNL    C11   15  -0.216   0.078  -0.195
    1UNL     O5   16  -0.244   0.101  -0.055
    1UNL    C12   17  -0.315   0.224  -0.042
    1UNL    C13   18  -0.326   0.245   0.110
    1UNL     O6   19  -0.356   0.118   0.174
    1UNL    C14   20  -0.253   0.344  -0.122
    1UNL     O7   21  -0.240   0.464  -0.046
    1UNL    C15   22  -0.115   0.297  -0.174
    1UNL     O8   23  -0.052   0.406  -0.243
    1UNL    C16   24  -0.112   0.174  -0.252
    1UNL     O9   25   0.012   0.112  -0.268
    1UNL    C17   26  -0.291  -0.345   0.011
    1UNL    O10   27  -0.284  -0.470  -0.066
    1UNL    C18   28  -0.255  -0.378   0.156
    1UNL    O11   29  -0.315  -0.498   0.193
    1UNL    C19   30  -0.102  -0.389   0.180
    1UNL    O12   31  -0.053  -0.512   0.138
    1UNL    C20   32   0.182  -0.070   0.001
    1UNL    C21   33   0.058   0.021   0.018
    1UNL    O13   34   0.102   0.159   0.024
    1UNL    C22   35   0.040   0.222   0.131
    1UNL    O14   36  -0.048   0.181   0.204
    1UNL    C23   37   0.112   0.351   0.166
    1UNL    C24   38   0.249   0.362   0.186
    1UNL    C25   39   0.311   0.480   0.217
    1UNL    C26   40   0.235   0.592   0.222
    1UNL    C27   41   0.099   0.586   0.192
    1UNL    C28   42   0.034   0.464   0.173
    1UNL    C29   43   0.281  -0.077   0.120
    1UNL    O15   44   0.305   0.019   0.187
    1UNL    O16   45   0.333  -0.199   0.131
    1UNL     H1   46   0.301  -0.495  -0.042
    1UNL     H2   47   0.231  -0.459   0.133
    1UNL     H3   48   0.401  -0.436   0.105
    1UNL     H4   49   0.402  -0.321  -0.167
    1UNL     H5   50   0.504  -0.258  -0.042
    1UNL     H6   51   0.423  -0.104  -0.258
    1UNL     H7   52   0.458  -0.004   0.007
    1UNL     H8   53   0.218   0.040  -0.189
    1UNL     H9   54   0.046  -0.148  -0.221
    1UNL    H10   55   0.207  -0.239  -0.250
    1UNL    H11   56   0.018  -0.193   0.182
    1UNL    H12   57  -0.122  -0.281  -0.109
    1UNL    H13   58  -0.347  -0.079  -0.112
    1UNL    H14   59  -0.324  -0.192  -0.229
    1UNL    H15   60  -0.304   0.092  -0.243
    1UNL    H16   61  -0.408   0.193  -0.106
    1UNL    H17   62  -0.401   0.316   0.133
    1UNL    H18   63  -0.229   0.266   0.150
    1UNL    H19   64  -0.279   0.057   0.149
    1UNL    H20   65  -0.315   0.361  -0.213
    1UNL    H21   66  -0.320   0.517  -0.023
    1UNL    H22   67  -0.060   0.265  -0.088
    1UNL    H23   68  -0.078   0.490  -0.198
    1UNL    H24   69  -0.156   0.191  -0.354
    1UNL    H25   70   0.077   0.174  -0.324
    1UNL    H26   71  -0.401  -0.313   0.017
    1UNL    H27   72  -0.308  -0.539  -0.001
    1UNL    H28   73  -0.297  -0.300   0.219
    1UNL    H29   74  -0.240  -0.558   0.209
    1UNL    H30   75  -0.099  -0.390   0.287
    1UNL    H31   76  -0.042  -0.506   0.040
    1UNL    H32   77  -0.014   0.016  -0.070
    1UNL    H33   78  -0.004  -0.005   0.102
    1UNL    H34   79   0.303   0.267   0.163
    1UNL    H35   80   0.421   0.494   0.208
    1UNL    H36   81   0.286   0.691   0.246
    1UNL    H37   82   0.026   0.668   0.209
    1UNL    H38   83  -0.067   0.455   0.152
   0.00000   0.00000   0.00000   0.00000   0.00000   0.00000   0.00000   0.00000   0.00000
Generated with MDTraj, t= 13.0
 83
    1UNL     C1    1   0.311  -0.419   0.053
    1UNL     C2    2   0.306  -0.271   0.009
    1UNL     C3    3   0.411  -0.232  -0.098
    1UNL     C4    4   0.392  -0.090  -0.147
    1UNL     O1    5   0.474   0.013  -0.084
    1UNL     C5    6   0.242  -0.054  -0.149
    1UNL     C6    7   0.148  -0.176  -0.184
    1UNL     C7    8   0.164  -0.224  -0.039
    1UNL     O2    9   0.060  -0.313   0.018
    1UNL     C8   10  -0.037  -0.261   0.105
    1UNL     O3   11  -0.131  -0.177   0.040
    1UNL     C9   12  -0.194  -0.243  -0.058
    1UNL    C10   13  -0.262  -0.156  -0.162
    1UNL     O4   14  -0.167  -0.070  -0.226
    1UNL    C11   15  -0.207   0.069  -0.204
    1UNL     O5   16  -0.231   0.095  -0.062
    1UNL    C12   17  -0.305   0.216  -0.041
    1UNL    C13   18  -0.312   0.241   0.115
    1UNL     O6   19  -0.337   0.118   0.182
    1UNL    C14   20  -0.248   0.336  -0.123
    1UNL     O7   21  -0.232   0.453  -0.047
    1UNL    C15   22  -0.102   0.297  -0.172
    1UNL     O8   23  -0.059   0.416  -0.245
    1UNL    C16   24  -0.103   0.174  -0.264
    1UNL     O9   25   0.031   0.136  -0.277
    1UNL    C17   26  -0.297  -0.343   0.015
    1UNL    O10   27  -0.298  -0.478  -0.040
    1UNL    C18   28  -0.263  -0.363   0.168
    1UNL    O11   29  -0.322  -0.482   0.220
    1UNL    C19   30  -0.108  -0.384   0.183
    1UNL    O12   31  -0.073  -0.510   0.141
    1UNL    C20   32   0.178  -0.065  -0.005
    1UNL    C21   33   0.049   0.016   0.024
    1UNL    O13   34   0.091   0.152   0.024
    1UNL    C22   35   0.032   0.221   0.130
    1UNL    O14   36  -0.059   0.181   0.201
    1UNL    C23   37   0.110   0.345   0.166
    1UNL    C24   38   0.244   0.345   0.182
    1UNL    C25   39   0.302   0.462   0.224
    1UNL    C26   40   0.230   0.585   0.235
    1UNL    C27   41   0.097   0.582   0.215
    1UNL    C28   42   0.034   0.462   0.173
    1UNL    C29   43   0.278  -0.066   0.106
    1UNL    O15   44   0.312   0.033   0.166
    1UNL    O16   45   0.324  -0.195   0.128
    1UNL     H1   46   0.308  -0.482  -0.035
    1UNL     H2   47   0.232  -0.453   0.133
    1UNL     H3   48   0.408  -0.435   0.111
    1UNL     H4   49   0.410  -0.315  -0.170
    1UNL     H5   50   0.509  -0.236  -0.047
    1UNL     H6   51   0.424  -0.077  -0.254
    1UNL     H7   52   0.436   0.029   0.005
    1UNL     H8   53   0.221   0.046  -0.180
    1UNL     H9   54   0.051  -0.135  -0.224
    1UNL    H10   55   0.199  -0.243  -0.253
    1UNL    H11   56   0.019  -0.203   0.169
    1UNL    H12   57  -0.120  -0.305  -0.107
    1UNL    H13   58  -0.335  -0.085  -0.112
    1UNL    H14   59  -0.323  -0.211  -0.230
    1UNL    H15   60  -0.299   0.087  -0.243
    1UNL    H16   61  -0.407   0.187  -0.084
    1UNL    H17   62  -0.384   0.315   0.138
    1UNL    H18   63  -0.215   0.266   0.150
    1UNL    H19   64  -0.285   0.045   0.146
    1UNL    H20   65  -0.317   0.353  -0.207
    1UNL    H21   66  -0.317   0.500  -0.031
    1UNL    H22   67  -0.035   0.279  -0.090
    1UNL    H23   68  -0.086   0.499  -0.188
    1UNL    H24   69  -0.145   0.221  -0.355
    1UNL    H25   70   0.082   0.208  -0.326
    1UNL    H26   71  -0.399  -0.297   0.011
    1UNL    H27   72  -0.379  -0.519  -0.002
    1UNL    H28   73  -0.293  -0.275   0.221
    1UNL    H29   74  -0.265  -0.558   0.183
    1UNL    H30   75  -0.090  -0.392   0.291
    1UNL    H31   76  -0.088  -0.526   0.048
    1UNL    H32   77  -0.024   0.003  -0.061
    1UNL    H33   78  -0.006   0.002   0.118
    1UNL    H34   79   0.306   0.268   0.148
    1UNL    H35   80   0.406   0.471   0.225
    1UNL    H36   81   0.280   0.669   0.272
    1UNL    H37   82   0.040   0.667   0.228
    1UNL    H38   83  -0.073   0.467   0.142
   0.00000   0.00000   0.00000   0.00000   0.00000   0.00000   0.00000   0.00000   0.00000
Generated with MDTraj, t= 14.0
 83
    1UNL     C1    1   0.320  -0.404   0.064
    1UNL     C2    2   0.313  -0.266   0.008
    1UNL     C3    3   0.416  -0.224  -0.104
    1UNL     C4    4   0.385  -0.087  -0.161
    1UNL     O1    5   0.453   0.020  -0.092
    1UNL     C5    6   0.226  -0.060  -0.157
    1UNL     C6    7   0.147  -0.191  -0.182
    1UNL     C7    8   0.164  -0.230  -0.039
    1UNL     O2    9   0.069  -0.317   0.032
    1UNL     C8   10  -0.025  -0.256   0.112
    1UNL     O3   11  -0.113  -0.169   0.033
    1UNL     C9   12  -0.190  -0.242  -0.060
    1UNL    C10   13  -0.264  -0.149  -0.159
    1UNL     O4   14  -0.171  -0.062  -0.226
    1UNL    C11   15  -0.212   0.069  -0.208
    1UNL     O5   16  -0.240   0.090  -0.070
    1UNL    C12   17  -0.310   0.206  -0.043
    1UNL    C13   18  -0.313   0.223   0.112
    1UNL     O6   19  -0.341   0.100   0.159
    1UNL    C14   20  -0.248   0.330  -0.114
    1UNL     O7   21  -0.233   0.445  -0.046
    1UNL    C15   22  -0.103   0.292  -0.170
    1UNL     O8   23  -0.047   0.403  -0.253
    1UNL    C16   24  -0.109   0.167  -0.267
    1UNL     O9   25   0.027   0.122  -0.278
    1UNL    C17   26  -0.294  -0.341   0.017
    1UNL    O10   27  -0.283  -0.467  -0.040
    1UNL    C18   28  -0.263  -0.340   0.167
    1UNL    O11   29  -0.333  -0.446   0.228
    1UNL    C19   30  -0.109  -0.377   0.185
    1UNL    O12   31  -0.086  -0.497   0.128
    1UNL    C20   32   0.176  -0.068  -0.013
    1UNL    C21   33   0.046   0.018   0.010
    1UNL    O13   34   0.088   0.156   0.022
    1UNL    C22   35   0.040   0.216   0.139
    1UNL    O14   36  -0.035   0.157   0.213
    1UNL    C23   37   0.107   0.343   0.181
    1UNL    C24   38   0.245   0.338   0.207
    1UNL    C25   39   0.307   0.460   0.238
    1UNL    C26   40   0.236   0.576   0.242
    1UNL    C27   41   0.105   0.579   0.211
    1UNL    C28   42   0.040   0.462   0.175
    1UNL    C29   43   0.268  -0.063   0.108
    1UNL    O15   44   0.286   0.037   0.173
    1UNL    O16   45   0.334  -0.179   0.122
    1UNL     H1   46   0.277  -0.480  -0.002
    1UNL     H2   47   0.279  -0.413   0.168
    1UNL     H3   48   0.430  -0.433   0.085
    1UNL     H4   49   0.401  -0.298  -0.181
    1UNL     H5   50   0.520  -0.229  -0.061
    1UNL     H6   51   0.423  -0.080  -0.267
    1UNL     H7   52   0.398   0.051  -0.016
    1UNL     H8   53   0.193   0.028  -0.209
    1UNL     H9   54   0.047  -0.176  -0.222
    1UNL    H10   55   0.194  -0.263  -0.257
    1UNL    H11   56   0.023  -0.193   0.176
    1UNL    H12   57  -0.117  -0.306  -0.113
    1UNL    H13   58  -0.333  -0.086  -0.089
    1UNL    H14   59  -0.330  -0.199  -0.231
    1UNL    H15   60  -0.301   0.080  -0.259
    1UNL    H16   61  -0.415   0.205  -0.073
    1UNL    H17   62  -0.392   0.285   0.152
    1UNL    H18   63  -0.219   0.259   0.148
    1UNL    H19   64  -0.281   0.027   0.125
    1UNL    H20   65  -0.309   0.358  -0.199
    1UNL    H21   66  -0.319   0.489  -0.030
    1UNL    H22   67  -0.028   0.269  -0.095
    1UNL    H23   68  -0.040   0.479  -0.196
    1UNL    H24   69  -0.138   0.180  -0.370
    1UNL    H25   70   0.089   0.185  -0.309
    1UNL    H26   71  -0.392  -0.300  -0.004
    1UNL    H27   72  -0.334  -0.537   0.007
    1UNL    H28   73  -0.281  -0.243   0.207
    1UNL    H29   74  -0.285  -0.527   0.215
    1UNL    H30   75  -0.082  -0.389   0.292
    1UNL    H31   76  -0.099  -0.495   0.026
    1UNL    H32   77  -0.026   0.014  -0.076
    1UNL    H33   78  -0.007  -0.003   0.104
    1UNL    H34   79   0.300   0.241   0.192
    1UNL    H35   80   0.412   0.445   0.263
    1UNL    H36   81   0.292   0.665   0.278
    1UNL    H37   82   0.045   0.672   0.244
    1UNL    H38   83  -0.063   0.468   0.143
   0.00000   0.00000   0.00000   0.00000   0.00000   0.00000   0.00000   0.00000   0.00000
Generated with MDTraj, t= 15.0
 83
    1UNL     C1    1   0.324  -0.404   0.060
    1UNL     C2    2   0.311  -0.263   0.015
    1UNL     C3    3   0.413  -0.220  -0.100
    1UNL     C4    4   0.380  -0.083  -0.160
    1UNL     O1    5   0.467   0.019  -0.101
    1UNL     C5    6   0.225  -0.047  -0.150
    1UNL     C6    7   0.149  -0.177  -0.185
    1UNL     C7    8   0.164  -0.226  -0.035
    1UNL     O2    9   0.062  -0.304   0.031
    1UNL     C8   10  -0.034  -0.243   0.104
    1UNL     O3   11  -0.122  -0.165   0.024
    1UNL     C9   12  -0.199  -0.246  -0.066
    1UNL    C10   13  -0.260  -0.158  -0.183
    1UNL     O4   14  -0.171  -0.068  -0.240
    1UNL    C11   15  -0.219   0.064  -0.212
    1UNL     O5   16  -0.236   0.088  -0.070
    1UNL    C12   17  -0.314   0.206  -0.046
    1UNL    C13   18  -0.309   0.219   0.104
    1UNL     O6   19  -0.353   0.098   0.156
    1UNL    C14   20  -0.246   0.332  -0.113
    1UNL     O7   21  -0.226   0.432  -0.026
    1UNL    C15   22  -0.103   0.291  -0.173
    1UNL     O8   23  -0.053   0.408  -0.243
    1UNL    C16   24  -0.121   0.165  -0.274
    1UNL     O9   25   0.009   0.121  -0.302
    1UNL    C17   26  -0.305  -0.345   0.007
    1UNL    O10   27  -0.296  -0.470  -0.042
    1UNL    C18   28  -0.274  -0.341   0.159
    1UNL    O11   29  -0.331  -0.460   0.225
    1UNL    C19   30  -0.119  -0.352   0.192
    1UNL    O12   31  -0.072  -0.478   0.178
    1UNL    C20   32   0.178  -0.065  -0.007
    1UNL    C21   33   0.045   0.014   0.016
    1UNL    O13   34   0.079   0.152   0.017
    1UNL    C22   35   0.047   0.204   0.138
    1UNL    O14   36  -0.022   0.147   0.220
    1UNL    C23   37   0.111   0.336   0.183
    1UNL    C24   38   0.241   0.334   0.233
    1UNL    C25   39   0.310   0.454   0.267
    1UNL    C26   40   0.242   0.565   0.248
    1UNL    C27   41   0.111   0.569   0.197
    1UNL    C28   42   0.051   0.455   0.156
    1UNL    C29   43   0.280  -0.056   0.103
    1UNL    O15   44   0.312   0.047   0.156
    1UNL    O16   45   0.340  -0.171   0.127
    1UNL     H1   46   0.333  -0.474  -0.030
    1UNL     H2   47   0.232  -0.429   0.113
    1UNL     H3   48   0.401  -0.424   0.139
    1UNL     H4   49   0.413  -0.292  -0.181
    1UNL     H5   50   0.512  -0.219  -0.046
    1UNL     H6   51   0.404  -0.087  -0.270
    1UNL     H7   52   0.451   0.019  -0.005
    1UNL     H8   53   0.191   0.034  -0.213
    1UNL     H9   54   0.044  -0.162  -0.213
    1UNL    H10   55   0.204  -0.252  -0.254
    1UNL    H11   56   0.009  -0.173   0.164
    1UNL    H12   57  -0.117  -0.315  -0.099
    1UNL    H13   58  -0.355  -0.102  -0.142
    1UNL    H14   59  -0.298  -0.229  -0.261
    1UNL    H15   60  -0.308   0.074  -0.264
    1UNL    H16   61  -0.410   0.188  -0.088
    1UNL    H17   62  -0.362   0.306   0.144
    1UNL    H18   63  -0.207   0.227   0.145
    1UNL    H19   64  -0.295   0.023   0.132
    1UNL    H20   65  -0.313   0.369  -0.190
    1UNL    H21   66  -0.315   0.470  -0.006
    1UNL    H22   67  -0.028   0.283  -0.095
    1UNL    H23   68  -0.021   0.464  -0.171
    1UNL    H24   69  -0.156   0.213  -0.360
    1UNL    H25   70   0.063   0.194  -0.320
    1UNL    H26   71  -0.404  -0.310  -0.006
    1UNL    H27   72  -0.337  -0.538   0.016
    1UNL    H28   73  -0.310  -0.254   0.212
    1UNL    H29   74  -0.266  -0.527   0.267
    1UNL    H30   75  -0.091  -0.330   0.301
    1UNL    H31   76  -0.030  -0.487   0.095
    1UNL    H32   77  -0.022  -0.004  -0.070
    1UNL    H33   78  -0.005  -0.007   0.111
    1UNL    H34   79   0.285   0.241   0.247
    1UNL    H35   80   0.409   0.450   0.312
    1UNL    H36   81   0.287   0.654   0.283
    1UNL    H37   82   0.056   0.653   0.210
    1UNL    H38   83  -0.051   0.468   0.126
   0.00000   0.00000   0.00000   0.00000   0.00000   0.00000   0.00000   0.00000   0.00000
Generated with MDTraj, t= 16.0
 83
    1UNL     C1    1   0.296  -0.407   0.062
    1UNL     C2    2   0.298  -0.265   0.013
    1UNL     C3    3   0.408  -0.236  -0.099
    1UNL     C4    4   0.380  -0.096  -0.162
    1UNL     O1    5   0.464   0.001  -0.102
    1UNL     C5    6   0.229  -0.058  -0.153
    1UNL     C6    7   0.139  -0.184  -0.181
    1UNL     C7    8   0.152  -0.217  -0.034
    1UNL     O2    9   0.051  -0.297   0.030
    1UNL     C8   10  -0.043  -0.230   0.109
    1UNL     O3   11  -0.139  -0.153   0.034
    1UNL     C9   12  -0.196  -0.236  -0.065
    1UNL    C10   13  -0.261  -0.162  -0.187
    1UNL     O4   14  -0.180  -0.072  -0.248
    1UNL    C11   15  -0.226   0.060  -0.213
    1UNL     O5   16  -0.224   0.079  -0.071
    1UNL    C12   17  -0.301   0.195  -0.037
    1UNL    C13   18  -0.302   0.201   0.111
    1UNL     O6   19  -0.342   0.066   0.154
    1UNL    C14   20  -0.241   0.327  -0.111
    1UNL     O7   21  -0.211   0.424  -0.017
    1UNL    C15   22  -0.103   0.291  -0.182
    1UNL     O8   23  -0.060   0.406  -0.246
    1UNL    C16   24  -0.125   0.162  -0.271
    1UNL     O9   25   0.002   0.113  -0.308
    1UNL    C17   26  -0.290  -0.347   0.002
    1UNL    O10   27  -0.269  -0.467  -0.051
    1UNL    C18   28  -0.270  -0.350   0.157
    1UNL    O11   29  -0.321  -0.473   0.213
    1UNL    C19   30  -0.122  -0.342   0.195
    1UNL    O12   31  -0.059  -0.460   0.184
    1UNL    C20   32   0.171  -0.058  -0.009
    1UNL    C21   33   0.042   0.027   0.005
    1UNL    O13   34   0.088   0.162   0.019
    1UNL    C22   35   0.057   0.212   0.141
    1UNL    O14   36  -0.020   0.155   0.214
    1UNL    C23   37   0.124   0.340   0.189
    1UNL    C24   38   0.236   0.342   0.261
    1UNL    C25   39   0.301   0.461   0.292
    1UNL    C26   40   0.244   0.581   0.253
    1UNL    C27   41   0.125   0.585   0.189
    1UNL    C28   42   0.065   0.467   0.153
    1UNL    C29   43   0.269  -0.049   0.100
    1UNL    O15   44   0.301   0.056   0.152
    1UNL    O16   45   0.324  -0.171   0.125
    1UNL     H1   46   0.221  -0.464  -0.006
    1UNL     H2   47   0.266  -0.405   0.167
    1UNL     H3   48   0.394  -0.454   0.058
    1UNL     H4   49   0.404  -0.319  -0.172
    1UNL     H5   50   0.509  -0.231  -0.050
    1UNL     H6   51   0.403  -0.102  -0.270
    1UNL     H7   52   0.416   0.044  -0.028
    1UNL     H8   53   0.202   0.031  -0.207
    1UNL     H9   54   0.030  -0.159  -0.209
    1UNL    H10   55   0.202  -0.261  -0.236
    1UNL    H11   56   0.009  -0.162   0.165
    1UNL    H12   57  -0.101  -0.291  -0.096
    1UNL    H13   58  -0.362  -0.115  -0.151
    1UNL    H14   59  -0.289  -0.235  -0.268
    1UNL    H15   60  -0.319   0.066  -0.263
    1UNL    H16   61  -0.387   0.163  -0.086
    1UNL    H17   62  -0.376   0.271   0.156
    1UNL    H18   63  -0.205   0.231   0.157
    1UNL    H19   64  -0.271   0.008   0.128
    1UNL    H20   65  -0.311   0.371  -0.183
    1UNL    H21   66  -0.287   0.474   0.023
    1UNL    H22   67  -0.020   0.262  -0.121
    1UNL    H23   68  -0.043   0.473  -0.170
    1UNL    H24   69  -0.153   0.186  -0.368
    1UNL    H25   70   0.059   0.190  -0.336
    1UNL    H26   71  -0.385  -0.312  -0.024
    1UNL    H27   72  -0.318  -0.540  -0.005
    1UNL    H28   73  -0.310  -0.258   0.205
    1UNL    H29   74  -0.259  -0.545   0.221
    1UNL    H30   75  -0.105  -0.322   0.309
    1UNL    H31   76  -0.007  -0.465   0.093
    1UNL    H32   77  -0.026   0.012  -0.077
    1UNL    H33   78  -0.001   0.001   0.099
    1UNL    H34   79   0.286   0.243   0.279
    1UNL    H35   80   0.398   0.466   0.339
    1UNL    H36   81   0.284   0.683   0.267
    1UNL    H37   82   0.076   0.685   0.170
    1UNL    H38   83  -0.030   0.474   0.101
   0.00000   0.00000   0.00000   0.00000   0.00000   0.00000   0.00000   0.00000   0.00000
Generated with MDTraj, t= 17.0
 83
    1UNL     C1    1   0.269  -0.406   0.071
    1UNL     C2    2   0.284  -0.257   0.019
    1UNL     C3    3   0.391  -0.245  -0.091
    1UNL     C4    4   0.376  -0.100  -0.158
    1UNL     O1    5   0.465  -0.011  -0.100
    1UNL     C5    6   0.229  -0.058  -0.155
    1UNL     C6    7   0.127  -0.174  -0.185
    1UNL     C7    8   0.142  -0.211  -0.035
    1UNL     O2    9   0.037  -0.296   0.027
    1UNL     C8   10  -0.051  -0.228   0.109
    1UNL     O3   11  -0.143  -0.153   0.028
    1UNL     C9   12  -0.203  -0.238  -0.071
    1UNL    C10   13  -0.276  -0.160  -0.181
    1UNL     O4   14  -0.193  -0.074  -0.253
    1UNL    C11   15  -0.219   0.063  -0.218
    1UNL     O5   16  -0.224   0.077  -0.076
    1UNL    C12   17  -0.301   0.185  -0.035
    1UNL    C13   18  -0.296   0.187   0.123
    1UNL     O6   19  -0.312   0.052   0.164
    1UNL    C14   20  -0.234   0.313  -0.098
    1UNL     O7   21  -0.203   0.411  -0.006
    1UNL    C15   22  -0.112   0.297  -0.190
    1UNL     O8   23  -0.078   0.405  -0.266
    1UNL    C16   24  -0.115   0.165  -0.275
    1UNL     O9   25   0.022   0.120  -0.300
    1UNL    C17   26  -0.284  -0.360  -0.004
    1UNL    O10   27  -0.228  -0.476  -0.049
    1UNL    C18   28  -0.274  -0.355   0.150
    1UNL    O11   29  -0.327  -0.479   0.201
    1UNL    C19   30  -0.124  -0.344   0.199
    1UNL    O12   31  -0.059  -0.460   0.183
    1UNL    C20   32   0.168  -0.058  -0.012
    1UNL    C21   33   0.046   0.035   0.008
    1UNL    O13   34   0.083   0.174   0.006
    1UNL    C22   35   0.066   0.220   0.137
    1UNL    O14   36   0.001   0.161   0.220
    1UNL    C23   37   0.127   0.351   0.172
    1UNL    C24   38   0.244   0.349   0.253
    1UNL    C25   39   0.298   0.465   0.301
    1UNL    C26   40   0.243   0.591   0.266
    1UNL    C27   41   0.131   0.596   0.192
    1UNL    C28   42   0.071   0.482   0.145
    1UNL    C29   43   0.267  -0.046   0.104
    1UNL    O15   44   0.295   0.055   0.164
    1UNL    O16   45   0.323  -0.168   0.122
    1UNL     H1   46   0.295  -0.475  -0.008
    1UNL     H2   47   0.167  -0.421   0.119
    1UNL     H3   48   0.342  -0.418   0.150
    1UNL     H4   49   0.368  -0.331  -0.161
    1UNL     H5   50   0.492  -0.258  -0.048
    1UNL     H6   51   0.399  -0.108  -0.264
    1UNL     H7   52   0.442   0.007  -0.006
    1UNL     H8   53   0.219   0.037  -0.206
    1UNL     H9   54   0.023  -0.139  -0.230
    1UNL    H10   55   0.175  -0.246  -0.255
    1UNL    H11   56   0.004  -0.169   0.171
    1UNL    H12   57  -0.110  -0.299  -0.104
    1UNL    H13   58  -0.355  -0.095  -0.127
    1UNL    H14   59  -0.333  -0.226  -0.246
    1UNL    H15   60  -0.321   0.073  -0.253
    1UNL    H16   61  -0.398   0.171  -0.068
    1UNL    H17   62  -0.373   0.253   0.172
    1UNL    H18   63  -0.196   0.222   0.163
    1UNL    H19   64  -0.264  -0.011   0.108
    1UNL    H20   65  -0.319   0.372  -0.141
    1UNL    H21   66  -0.283   0.453   0.033
    1UNL    H22   67  -0.028   0.283  -0.124
    1UNL    H23   68  -0.055   0.488  -0.210
    1UNL    H24   69  -0.146   0.204  -0.365
    1UNL    H25   70   0.070   0.202  -0.344
    1UNL    H26   71  -0.381  -0.360  -0.041
    1UNL    H27   72  -0.245  -0.551   0.011
    1UNL    H28   73  -0.329  -0.265   0.189
    1UNL    H29   74  -0.265  -0.535   0.256
    1UNL    H30   75  -0.124  -0.335   0.315
    1UNL    H31   76  -0.047  -0.473   0.092
    1UNL    H32   77  -0.023   0.031  -0.074
    1UNL    H33   78  -0.004   0.014   0.099
    1UNL    H34   79   0.293   0.258   0.261
    1UNL    H35   80   0.397   0.471   0.345
    1UNL    H36   81   0.294   0.679   0.297
    1UNL    H37   82   0.091   0.695   0.160
    1UNL    H38   83  -0.015   0.490   0.083
   0.00000   0.00000   0.00000   0.00000   0.00000   0.00000   0.00000   0.00000   0.00000
Generated with MDTraj, t= 18.0
 83
    1UNL     C1    1   0.284  -0.412   0.068
    1UNL     C2    2   0.292  -0.263   0.025
    1UNL     C3    3   0.404  -0.234  -0.080
    1UNL     C4    4   0.384  -0.090  -0.149
    1UNL     O1    5   0.463   0.007  -0.082
    1UNL     C5    6   0.236  -0.055  -0.150
    1UNL     C6    7   0.142  -0.178  -0.176
    1UNL     C7    8   0.151  -0.213  -0.025
    1UNL     O2    9   0.041  -0.290   0.030
    1UNL     C8   10  -0.060  -0.227   0.100
    1UNL     O3   11  -0.144  -0.157   0.014
    1UNL     C9   12  -0.198  -0.246  -0.088
    1UNL    C10   13  -0.278  -0.169  -0.190
    1UNL     O4   14  -0.205  -0.070  -0.255
    1UNL    C11   15  -0.235   0.059  -0.210
    1UNL     O5   16  -0.246   0.075  -0.067
    1UNL    C12   17  -0.310   0.195  -0.021
    1UNL    C13   18  -0.270   0.189   0.136
    1UNL     O6   19  -0.319   0.066   0.182
    1UNL    C14   20  -0.243   0.321  -0.090
    1UNL     O7   21  -0.209   0.436  -0.016
    1UNL    C15   22  -0.114   0.292  -0.181
    1UNL     O8   23  -0.091   0.401  -0.272
    1UNL    C16   24  -0.133   0.160  -0.273
    1UNL     O9   25   0.000   0.106  -0.297
    1UNL    C17   26  -0.278  -0.368  -0.026
    1UNL    O10   27  -0.213  -0.486  -0.054
    1UNL    C18   28  -0.289  -0.354   0.129
    1UNL    O11   29  -0.349  -0.469   0.188
    1UNL    C19   30  -0.134  -0.340   0.190
    1UNL    O12   31  -0.070  -0.461   0.185
    1UNL    C20   32   0.169  -0.060  -0.008
    1UNL    C21   33   0.049   0.035   0.011
    1UNL    O13   34   0.096   0.169   0.016
    1UNL    C22   35   0.078   0.214   0.144
    1UNL    O14   36  -0.000   0.163   0.222
    1UNL    C23   37   0.132   0.352   0.167
    1UNL    C24   38   0.261   0.355   0.233
    1UNL    C25   39   0.315   0.470   0.279
    1UNL    C26   40   0.248   0.591   0.259
    1UNL    C27   41   0.130   0.585   0.186
    1UNL    C28   42   0.067   0.467   0.147
    1UNL    C29   43   0.272  -0.050   0.110
    1UNL    O15   44   0.313   0.053   0.158
    1UNL    O16   45   0.324  -0.175   0.135
    1UNL     H1   46   0.218  -0.462   0.006
    1UNL     H2   47   0.256  -0.410   0.179
    1UNL     H3   48   0.381  -0.463   0.056
    1UNL     H4   49   0.410  -0.326  -0.150
    1UNL     H5   50   0.498  -0.234  -0.024
    1UNL     H6   51   0.419  -0.088  -0.250
    1UNL     H7   52   0.438   0.018   0.012
    1UNL     H8   53   0.224   0.037  -0.209
    1UNL     H9   54   0.036  -0.154  -0.224
    1UNL    H10   55   0.191  -0.249  -0.249
    1UNL    H11   56  -0.010  -0.164   0.163
    1UNL    H12   57  -0.098  -0.286  -0.131
    1UNL    H13   58  -0.368  -0.125  -0.137
    1UNL    H14   59  -0.319  -0.232  -0.266
    1UNL    H15   60  -0.341   0.062  -0.245
    1UNL    H16   61  -0.413   0.183  -0.035
    1UNL    H17   62  -0.315   0.274   0.194
    1UNL    H18   63  -0.160   0.193   0.156
    1UNL    H19   64  -0.275  -0.003   0.131
    1UNL    H20   65  -0.311   0.344  -0.175
    1UNL    H21   66  -0.292   0.472   0.023
    1UNL    H22   67  -0.025   0.272  -0.125
    1UNL    H23   68  -0.074   0.485  -0.231
    1UNL    H24   69  -0.165   0.181  -0.368
    1UNL    H25   70   0.062   0.170  -0.356
    1UNL    H26   71  -0.376  -0.368  -0.062
    1UNL    H27   72  -0.251  -0.544   0.014
    1UNL    H28   73  -0.335  -0.255   0.161
    1UNL    H29   74  -0.280  -0.520   0.232
    1UNL    H30   75  -0.139  -0.311   0.300
    1UNL    H31   76  -0.048  -0.470   0.092
    1UNL    H32   77  -0.021   0.027  -0.069
    1UNL    H33   78  -0.017   0.023   0.093
    1UNL    H34   79   0.318   0.257   0.240
    1UNL    H35   80   0.412   0.476   0.328
    1UNL    H36   81   0.301   0.679   0.300
    1UNL    H37   82   0.087   0.676   0.169
    1UNL    H38   83  -0.035   0.467   0.106
   0.00000   0.00000   0.00000   0.00000   0.00000   0.00000   0.00000   0.00000   0.00000
Generated with MDTraj, t= 19.0
 83
    1UNL     C1    1   0.313  -0.403   0.080
    1UNL     C2    2   0.302  -0.270   0.030
    1UNL     C3    3   0.414  -0.233  -0.078
    1UNL     C4    4   0.388  -0.094  -0.145
    1UNL     O1    5   0.467   0.003  -0.078
    1UNL     C5    6   0.242  -0.058  -0.139
    1UNL     C6    7   0.149  -0.184  -0.173
    1UNL     C7    8   0.154  -0.221  -0.023
    1UNL     O2    9   0.051  -0.303   0.027
    1UNL     C8   10  -0.053  -0.231   0.098
    1UNL     O3   11  -0.140  -0.153   0.015
    1UNL     C9   12  -0.200  -0.236  -0.088
    1UNL    C10   13  -0.292  -0.161  -0.185
    1UNL     O4   14  -0.224  -0.066  -0.266
    1UNL    C11   15  -0.247   0.065  -0.226
    1UNL     O5   16  -0.253   0.077  -0.082
    1UNL    C12   17  -0.307   0.192  -0.033
    1UNL    C13   18  -0.288   0.196   0.121
    1UNL     O6   19  -0.284   0.064   0.172
    1UNL    C14   20  -0.266   0.322  -0.102
    1UNL     O7   21  -0.234   0.431  -0.012
    1UNL    C15   22  -0.126   0.290  -0.171
    1UNL     O8   23  -0.075   0.409  -0.231
    1UNL    C16   24  -0.137   0.162  -0.275
    1UNL     O9   25  -0.011   0.107  -0.295
    1UNL    C17   26  -0.278  -0.357  -0.024
    1UNL    O10   27  -0.226  -0.484  -0.069
    1UNL    C18   28  -0.285  -0.354   0.127
    1UNL    O11   29  -0.349  -0.471   0.177
    1UNL    C19   30  -0.137  -0.338   0.186
    1UNL    O12   31  -0.076  -0.463   0.187
    1UNL    C20   32   0.171  -0.062   0.005
    1UNL    C21   33   0.047   0.033   0.015
    1UNL    O13   34   0.082   0.171   0.023
    1UNL    C22   35   0.077   0.212   0.154
    1UNL    O14   36   0.009   0.153   0.235
    1UNL    C23   37   0.138   0.350   0.173
    1UNL    C24   38   0.269   0.354   0.209
    1UNL    C25   39   0.329   0.470   0.236
    1UNL    C26   40   0.263   0.589   0.229
    1UNL    C27   41   0.134   0.589   0.178
    1UNL    C28   42   0.066   0.468   0.162
    1UNL    C29   43   0.271  -0.052   0.124
    1UNL    O15   44   0.302   0.051   0.178
    1UNL    O16   45   0.332  -0.175   0.144
    1UNL     H1   46   0.359  -0.470   0.009
    1UNL     H2   47   0.213  -0.428   0.114
    1UNL     H3   48   0.376  -0.406   0.170
    1UNL     H4   49   0.421  -0.312  -0.161
    1UNL     H5   50   0.510  -0.239  -0.025
    1UNL     H6   51   0.429  -0.085  -0.245
    1UNL     H7   52   0.419   0.034   0.003
    1UNL     H8   53   0.214   0.031  -0.197
    1UNL     H9   54   0.042  -0.166  -0.208
    1UNL    H10   55   0.210  -0.254  -0.242
    1UNL    H11   56   0.005  -0.180   0.163
    1UNL    H12   57  -0.113  -0.275  -0.153
    1UNL    H13   58  -0.370  -0.108  -0.127
    1UNL    H14   59  -0.350  -0.227  -0.242
    1UNL    H15   60  -0.352   0.091  -0.263
    1UNL    H16   61  -0.410   0.175  -0.055
    1UNL    H17   62  -0.351   0.266   0.180
    1UNL    H18   63  -0.183   0.233   0.132
    1UNL    H19   64  -0.233   0.012   0.109
    1UNL    H20   65  -0.337   0.347  -0.182
    1UNL    H21   66  -0.315   0.471   0.027
    1UNL    H22   67  -0.075   0.271  -0.076
    1UNL    H23   68  -0.083   0.476  -0.160
    1UNL    H24   69  -0.170   0.210  -0.359
    1UNL    H25   70   0.045   0.163  -0.359
    1UNL    H26   71  -0.376  -0.350  -0.070
    1UNL    H27   72  -0.277  -0.554  -0.019
    1UNL    H28   73  -0.347  -0.261   0.148
    1UNL    H29   74  -0.291  -0.550   0.195
    1UNL    H30   75  -0.156  -0.321   0.295
    1UNL    H31   76  -0.036  -0.476   0.092
    1UNL    H32   77  -0.021   0.010  -0.065
    1UNL    H33   78  -0.019   0.014   0.096
    1UNL    H34   79   0.317   0.260   0.227
    1UNL    H35   80   0.431   0.460   0.265
    1UNL    H36   81   0.302   0.681   0.262
    1UNL    H37   82   0.072   0.688   0.174
    1UNL    H38   83  -0.037   0.453   0.145
   0.00000   0.00000   0.00000   0.00000   0.00000   0.00000   0.00000   0.00000   0.00000
Generated with MDTraj, t= 20.0
 83
    1UNL     C1    1   0.292  -0.412   0.082
    1UNL     C2    2   0.288  -0.268   0.041
    1UNL     C3    3   0.404  -0.232  -0.066
    1UNL     C4    4   0.384  -0.090  -0.128
    1UNL     O1    5   0.473   0.007  -0.070
    1UNL     C5    6   0.237  -0.048  -0.131
    1UNL     C6    7   0.147  -0.168  -0.175
    1UNL     C7    8   0.152  -0.213  -0.024
    1UNL     O2    9   0.046  -0.298   0.012
    1UNL     C8   10  -0.051  -0.236   0.099
    1UNL     O3   11  -0.142  -0.163   0.019
    1UNL     C9   12  -0.200  -0.245  -0.087
    1UNL    C10   13  -0.271  -0.166  -0.198
    1UNL     O4   14  -0.193  -0.068  -0.263
    1UNL    C11   15  -0.233   0.061  -0.217
    1UNL     O5   16  -0.242   0.072  -0.071
    1UNL    C12   17  -0.299   0.188  -0.024
    1UNL    C13   18  -0.279   0.181   0.135
    1UNL     O6   19  -0.310   0.053   0.175
    1UNL    C14   20  -0.260   0.321  -0.093
    1UNL     O7   21  -0.255   0.441  -0.009
    1UNL    C15   22  -0.122   0.292  -0.161
    1UNL     O8   23  -0.075   0.409  -0.216
    1UNL    C16   24  -0.133   0.175  -0.262
    1UNL     O9   25  -0.000   0.129  -0.278
    1UNL    C17   26  -0.289  -0.356  -0.024
    1UNL    O10   27  -0.233  -0.489  -0.065
    1UNL    C18   28  -0.284  -0.355   0.127
    1UNL    O11   29  -0.338  -0.474   0.177
    1UNL    C19   30  -0.132  -0.344   0.172
    1UNL    O12   31  -0.074  -0.468   0.158
    1UNL    C20   32   0.172  -0.054   0.008
    1UNL    C21   33   0.040   0.033   0.023
    1UNL    O13   34   0.071   0.166   0.019
    1UNL    C22   35   0.069   0.216   0.150
    1UNL    O14   36  -0.005   0.169   0.236
    1UNL    C23   37   0.140   0.348   0.162
    1UNL    C24   38   0.271   0.349   0.182
    1UNL    C25   39   0.339   0.466   0.200
    1UNL    C26   40   0.273   0.585   0.200
    1UNL    C27   41   0.133   0.592   0.167
    1UNL    C28   42   0.070   0.471   0.152
    1UNL    C29   43   0.273  -0.049   0.124
    1UNL    O15   44   0.311   0.052   0.181
    1UNL    O16   45   0.319  -0.178   0.152
    1UNL     H1   46   0.212  -0.465   0.023
    1UNL     H2   47   0.260  -0.410   0.181
    1UNL     H3   48   0.377  -0.478   0.069
    1UNL     H4   49   0.405  -0.309  -0.149
    1UNL     H5   50   0.502  -0.245  -0.011
    1UNL     H6   51   0.417  -0.080  -0.234
    1UNL     H7   52   0.436   0.043   0.013
    1UNL     H8   53   0.217   0.044  -0.190
    1UNL     H9   54   0.044  -0.149  -0.216
    1UNL    H10   55   0.211  -0.237  -0.247
    1UNL    H11   56   0.005  -0.180   0.163
    1UNL    H12   57  -0.113  -0.300  -0.138
    1UNL    H13   58  -0.358  -0.125  -0.148
    1UNL    H14   59  -0.317  -0.226  -0.270
    1UNL    H15   60  -0.336   0.084  -0.264
    1UNL    H16   61  -0.405   0.170  -0.041
    1UNL    H17   62  -0.336   0.259   0.184
    1UNL    H18   63  -0.174   0.197   0.162
    1UNL    H19   64  -0.260  -0.014   0.125
    1UNL    H20   65  -0.319   0.335  -0.185
    1UNL    H21   66  -0.344   0.464   0.028
    1UNL    H22   67  -0.051   0.255  -0.087
    1UNL    H23   68  -0.090   0.492  -0.159
    1UNL    H24   69  -0.160   0.211  -0.354
    1UNL    H25   70   0.065   0.176  -0.328
    1UNL    H26   71  -0.397  -0.361  -0.051
    1UNL    H27   72  -0.291  -0.554  -0.023
    1UNL    H28   73  -0.336  -0.265   0.167
    1UNL    H29   74  -0.273  -0.537   0.215
    1UNL    H30   75  -0.132  -0.325   0.278
    1UNL    H31   76  -0.066  -0.478   0.066
    1UNL    H32   77  -0.020   0.012  -0.068
    1UNL    H33   78  -0.031   0.004   0.100
    1UNL    H34   79   0.323   0.262   0.190
    1UNL    H35   80   0.447   0.471   0.210
    1UNL    H36   81   0.328   0.680   0.214
    1UNL    H37   82   0.082   0.680   0.150
    1UNL    H38   83  -0.039   0.458   0.145
   0.00000   0.00000   0.00000   0.00000   0.00000   0.00000   0.00000   0.00000   0.00000
Generated with MDTraj, t= 21.0
 83
    1UNL     C1    1   0.283  -0.415   0.067
    1UNL     C2    2   0.294  -0.269   0.030
    1UNL     C3    3   0.412  -0.239  -0.075
    1UNL     C4    4   0.392  -0.088  -0.128
    1UNL     O1    5   0.460   0.006  -0.053
    1UNL     C5    6   0.241  -0.053  -0.133
    1UNL     C6    7   0.149  -0.177  -0.171
    1UNL     C7    8   0.148  -0.215  -0.027
    1UNL     O2    9   0.037  -0.302   0.021
    1UNL     C8   10  -0.058  -0.243   0.102
    1UNL     O3   11  -0.145  -0.163   0.031
    1UNL     C9   12  -0.197  -0.245  -0.077
    1UNL    C10   13  -0.254  -0.162  -0.190
    1UNL     O4   14  -0.156  -0.070  -0.240
    1UNL    C11   15  -0.200   0.056  -0.205
    1UNL     O5   16  -0.225   0.068  -0.066
    1UNL    C12   17  -0.315   0.175  -0.027
    1UNL    C13   18  -0.315   0.172   0.134
    1UNL     O6   19  -0.333   0.043   0.181
    1UNL    C14   20  -0.260   0.316  -0.076
    1UNL     O7   21  -0.244   0.418   0.026
    1UNL    C15   22  -0.128   0.308  -0.161
    1UNL     O8   23  -0.106   0.419  -0.237
    1UNL    C16   24  -0.116   0.183  -0.249
    1UNL     O9   25   0.024   0.150  -0.250
    1UNL    C17   26  -0.291  -0.357  -0.023
    1UNL    O10   27  -0.248  -0.479  -0.091
    1UNL    C18   28  -0.290  -0.367   0.128
    1UNL    O11   29  -0.344  -0.482   0.178
    1UNL    C19   30  -0.140  -0.358   0.177
    1UNL    O12   31  -0.081  -0.489   0.144
    1UNL    C20   32   0.171  -0.061   0.004
    1UNL    C21   33   0.045   0.032   0.022
    1UNL    O13   34   0.087   0.169   0.019
    1UNL    C22   35   0.068   0.233   0.142
    1UNL    O14   36  -0.016   0.193   0.222
    1UNL    C23   37   0.139   0.362   0.150
    1UNL    C24   38   0.275   0.364   0.177
    1UNL    C25   39   0.351   0.484   0.182
    1UNL    C26   40   0.286   0.604   0.169
    1UNL    C27   41   0.146   0.600   0.152
    1UNL    C28   42   0.072   0.484   0.138
    1UNL    C29   43   0.268  -0.058   0.124
    1UNL    O15   44   0.290   0.046   0.186
    1UNL    O16   45   0.318  -0.184   0.147
    1UNL     H1   46   0.343  -0.469  -0.012
    1UNL     H2   47   0.182  -0.446   0.064
    1UNL     H3   48   0.330  -0.448   0.155
    1UNL     H4   49   0.398  -0.314  -0.156
    1UNL     H5   50   0.515  -0.260  -0.027
    1UNL     H6   51   0.425  -0.073  -0.235
    1UNL     H7   52   0.438   0.008   0.044
    1UNL     H8   53   0.226   0.044  -0.186
    1UNL     H9   54   0.051  -0.145  -0.223
    1UNL    H10   55   0.208  -0.241  -0.248
    1UNL    H11   56  -0.017  -0.185   0.176
    1UNL    H12   57  -0.106  -0.291  -0.127
    1UNL    H13   58  -0.344  -0.108  -0.159
    1UNL    H14   59  -0.289  -0.225  -0.264
    1UNL    H15   60  -0.301   0.070  -0.260
    1UNL    H16   61  -0.415   0.148  -0.070
    1UNL    H17   62  -0.391   0.232   0.179
    1UNL    H18   63  -0.222   0.215   0.172
    1UNL    H19   64  -0.265  -0.012   0.134
    1UNL    H20   65  -0.340   0.363  -0.135
    1UNL    H21   66  -0.332   0.441   0.062
    1UNL    H22   67  -0.051   0.299  -0.085
    1UNL    H23   68  -0.118   0.500  -0.192
    1UNL    H24   69  -0.140   0.219  -0.345
    1UNL    H25   70   0.067   0.160  -0.163
    1UNL    H26   71  -0.401  -0.335  -0.050
    1UNL    H27   72  -0.296  -0.556  -0.053
    1UNL    H28   73  -0.346  -0.285   0.172
    1UNL    H29   74  -0.279  -0.559   0.187
    1UNL    H30   75  -0.141  -0.341   0.282
    1UNL    H31   76  -0.084  -0.484   0.044
    1UNL    H32   77  -0.037   0.015  -0.055
    1UNL    H33   78   0.008   0.009   0.124
    1UNL    H34   79   0.336   0.263   0.181
    1UNL    H35   80   0.459   0.471   0.181
    1UNL    H36   81   0.344   0.689   0.145
    1UNL    H37   82   0.095   0.696   0.132
    1UNL    H38   83  -0.032   0.479   0.118
   0.00000   0.00000   0.00000   0.00000   0.00000   0.00000   0.00000   0.00000   0.00000
Generated with MDTraj, t= 22.0
 83
    1UNL     C1    1   0.295  -0.433   0.069
    1UNL     C2    2   0.304  -0.278   0.040
    1UNL     C3    3   0.411  -0.245  -0.073
    1UNL     C4    4   0.382  -0.096  -0.122
    1UNL     O1    5   0.464  -0.006  -0.059
    1UNL     C5    6   0.233  -0.057  -0.116
    1UNL     C6    7   0.148  -0.179  -0.147
    1UNL     C7    8   0.162  -0.230  -0.003
    1UNL     O2    9   0.055  -0.323   0.034
    1UNL     C8   10  -0.048  -0.260   0.099
    1UNL     O3   11  -0.129  -0.169   0.020
    1UNL     C9   12  -0.184  -0.238  -0.089
    1UNL    C10   13  -0.253  -0.146  -0.185
    1UNL     O4   14  -0.165  -0.052  -0.249
    1UNL    C11   15  -0.198   0.077  -0.206
    1UNL     O5   16  -0.207   0.080  -0.066
    1UNL    C12   17  -0.300   0.179  -0.011
    1UNL    C13   18  -0.310   0.152   0.134
    1UNL     O6   19  -0.344   0.013   0.160
    1UNL    C14   20  -0.269   0.327  -0.053
    1UNL     O7   21  -0.248   0.433   0.036
    1UNL    C15   22  -0.145   0.334  -0.157
    1UNL     O8   23  -0.144   0.452  -0.242
    1UNL    C16   24  -0.119   0.208  -0.249
    1UNL     O9   25   0.019   0.171  -0.247
    1UNL    C17   26  -0.290  -0.343  -0.030
    1UNL    O10   27  -0.279  -0.467  -0.110
    1UNL    C18   28  -0.282  -0.369   0.125
    1UNL    O11   29  -0.342  -0.487   0.170
    1UNL    C19   30  -0.137  -0.369   0.172
    1UNL    O12   31  -0.084  -0.505   0.148
    1UNL    C20   32   0.178  -0.074   0.034
    1UNL    C21   33   0.057   0.021   0.066
    1UNL    O13   34   0.097   0.151   0.027
    1UNL    C22   35   0.054   0.237   0.120
    1UNL    O14   36  -0.041   0.224   0.195
    1UNL    C23   37   0.124   0.373   0.124
    1UNL    C24   38   0.262   0.359   0.153
    1UNL    C25   39   0.343   0.473   0.164
    1UNL    C26   40   0.283   0.601   0.155
    1UNL    C27   41   0.151   0.612   0.124
    1UNL    C28   42   0.070   0.497   0.103
    1UNL    C29   43   0.284  -0.075   0.142
    1UNL    O15   44   0.307   0.026   0.206
    1UNL    O16   45   0.343  -0.196   0.159
    1UNL     H1   46   0.217  -0.482   0.020
    1UNL     H2   47   0.276  -0.435   0.176
    1UNL     H3   48   0.384  -0.488   0.052
    1UNL     H4   49   0.407  -0.326  -0.149
    1UNL     H5   50   0.512  -0.252  -0.018
    1UNL     H6   51   0.403  -0.089  -0.234
    1UNL     H7   52   0.415   0.040   0.013
    1UNL     H8   53   0.213   0.040  -0.167
    1UNL     H9   54   0.042  -0.144  -0.188
    1UNL    H10   55   0.202  -0.249  -0.217
    1UNL    H11   56  -0.008  -0.198   0.173
    1UNL    H12   57  -0.100  -0.287  -0.143
    1UNL    H13   58  -0.336  -0.091  -0.134
    1UNL    H14   59  -0.299  -0.196  -0.266
    1UNL    H15   60  -0.307   0.087  -0.245
    1UNL    H16   61  -0.395   0.150  -0.068
    1UNL    H17   62  -0.388   0.212   0.174
    1UNL    H18   63  -0.222   0.184   0.187
    1UNL    H19   64  -0.284  -0.040   0.100
    1UNL    H20   65  -0.353   0.368  -0.111
    1UNL    H21   66  -0.323   0.452   0.096
    1UNL    H22   67  -0.056   0.349  -0.094
    1UNL    H23   68  -0.169   0.531  -0.192
    1UNL    H24   69  -0.138   0.238  -0.352
    1UNL    H25   70   0.036   0.151  -0.144
    1UNL    H26   71  -0.395  -0.296  -0.055
    1UNL    H27   72  -0.334  -0.539  -0.072
    1UNL    H28   73  -0.334  -0.289   0.175
    1UNL    H29   74  -0.286  -0.566   0.182
    1UNL    H30   75  -0.134  -0.354   0.276
    1UNL    H31   76  -0.043  -0.503   0.058
    1UNL    H32   77  -0.030  -0.009  -0.002
    1UNL    H33   78   0.030   0.024   0.176
    1UNL    H34   79   0.294   0.265   0.175
    1UNL    H35   80   0.448   0.459   0.167
    1UNL    H36   81   0.345   0.693   0.170
    1UNL    H37   82   0.111   0.714   0.119
    1UNL    H38   83  -0.035   0.510   0.080
   0.00000   0.00000   0.00000   0.00000   0.00000   0.00000   0.00000   0.00000   0.00000
Generated with MDTraj, t= 23.0
 83
    1UNL     C1    1   0.319  -0.437   0.062
    1UNL     C2    2   0.314  -0.289   0.036
    1UNL     C3    3   0.416  -0.251  -0.077
    1UNL     C4    4   0.398  -0.101  -0.115
    1UNL     O1    5   0.493  -0.019  -0.049
    1UNL     C5    6   0.248  -0.057  -0.102
    1UNL     C6    7   0.154  -0.170  -0.143
    1UNL     C7    8   0.166  -0.229   0.005
    1UNL     O2    9   0.059  -0.309   0.054
    1UNL     C8   10  -0.059  -0.250   0.116
    1UNL     O3   11  -0.129  -0.163   0.019
    1UNL     C9   12  -0.182  -0.240  -0.090
    1UNL    C10   13  -0.228  -0.155  -0.200
    1UNL     O4   14  -0.143  -0.042  -0.240
    1UNL    C11   15  -0.206   0.078  -0.201
    1UNL     O5   16  -0.226   0.077  -0.057
    1UNL    C12   17  -0.317   0.181  -0.006
    1UNL    C13   18  -0.334   0.161   0.145
    1UNL     O6   19  -0.326   0.028   0.184
    1UNL    C14   20  -0.280   0.329  -0.056
    1UNL     O7   21  -0.259   0.416   0.059
    1UNL    C15   22  -0.152   0.328  -0.158
    1UNL     O8   23  -0.175   0.453  -0.235
    1UNL    C16   24  -0.130   0.206  -0.250
    1UNL     O9   25   0.003   0.179  -0.244
    1UNL    C17   26  -0.297  -0.338  -0.048
    1UNL    O10   27  -0.267  -0.466  -0.103
    1UNL    C18   28  -0.304  -0.357   0.104
    1UNL    O11   29  -0.370  -0.478   0.140
    1UNL    C19   30  -0.163  -0.363   0.166
    1UNL    O12   31  -0.113  -0.493   0.128
    1UNL    C20   32   0.196  -0.080   0.045
    1UNL    C21   33   0.077   0.015   0.082
    1UNL    O13   34   0.116   0.148   0.042
    1UNL    C22   35   0.055   0.236   0.120
    1UNL    O14   36  -0.053   0.220   0.175
    1UNL    C23   37   0.128   0.365   0.124
    1UNL    C24   38   0.264   0.363   0.144
    1UNL    C25   39   0.339   0.480   0.136
    1UNL    C26   40   0.276   0.603   0.114
    1UNL    C27   41   0.140   0.609   0.102
    1UNL    C28   42   0.066   0.486   0.103
    1UNL    C29   43   0.304  -0.086   0.153
    1UNL    O15   44   0.336   0.017   0.213
    1UNL    O16   45   0.361  -0.207   0.150
    1UNL     H1   46   0.345  -0.484  -0.025
    1UNL     H2   47   0.217  -0.466   0.091
    1UNL     H3   48   0.388  -0.457   0.141
    1UNL     H4   49   0.387  -0.315  -0.164
    1UNL     H5   50   0.521  -0.275  -0.041
    1UNL     H6   51   0.430  -0.092  -0.223
    1UNL     H7   52   0.487  -0.033   0.049
    1UNL     H8   53   0.217   0.046  -0.129
    1UNL     H9   54   0.045  -0.135  -0.165
    1UNL    H10   55   0.205  -0.229  -0.225
    1UNL    H11   56  -0.022  -0.181   0.185
    1UNL    H12   57  -0.101  -0.309  -0.111
    1UNL    H13   58  -0.317  -0.100  -0.154
    1UNL    H14   59  -0.269  -0.207  -0.286
    1UNL    H15   60  -0.309   0.075  -0.249
    1UNL    H16   61  -0.419   0.150  -0.053
    1UNL    H17   62  -0.422   0.209   0.183
    1UNL    H18   63  -0.250   0.208   0.195
    1UNL    H19   64  -0.258  -0.028   0.134
    1UNL    H20   65  -0.363   0.378  -0.112
    1UNL    H21   66  -0.347   0.425   0.101
    1UNL    H22   67  -0.063   0.352  -0.098
    1UNL    H23   68  -0.200   0.525  -0.169
    1UNL    H24   69  -0.147   0.229  -0.360
    1UNL    H25   70   0.030   0.155  -0.158
    1UNL    H26   71  -0.404  -0.309  -0.084
    1UNL    H27   72  -0.330  -0.526  -0.061
    1UNL    H28   73  -0.353  -0.276   0.153
    1UNL    H29   74  -0.307  -0.553   0.158
    1UNL    H30   75  -0.174  -0.360   0.270
    1UNL    H31   76  -0.084  -0.493   0.029
    1UNL    H32   77  -0.025   0.003   0.033
    1UNL    H33   78   0.078   0.016   0.194
    1UNL    H34   79   0.307   0.260   0.157
    1UNL    H35   80   0.441   0.489   0.172
    1UNL    H36   81   0.327   0.695   0.126
    1UNL    H37   82   0.078   0.693   0.111
    1UNL    H38   83  -0.040   0.505   0.104
   0.00000   0.00000   0.00000   0.00000   0.00000   0.00000   0.00000   0.00000   0.00000
Generated with MDTraj, t= 24.0
 83
    1UNL     C1    1   0.289  -0.449   0.074
    1UNL     C2    2   0.299  -0.301   0.036
    1UNL     C3    3   0.408  -0.265  -0.073
    1UNL     C4    4   0.396  -0.119  -0.120
    1UNL     O1    5   0.492  -0.031  -0.047
    1UNL     C5    6   0.250  -0.065  -0.105
    1UNL     C6    7   0.148  -0.174  -0.146
    1UNL     C7    8   0.161  -0.234  -0.004
    1UNL     O2    9   0.054  -0.313   0.043
    1UNL     C8   10  -0.050  -0.248   0.096
    1UNL     O3   11  -0.111  -0.166  -0.002
    1UNL     C9   12  -0.173  -0.243  -0.110
    1UNL    C10   13  -0.231  -0.152  -0.211
    1UNL     O4   14  -0.148  -0.038  -0.243
    1UNL    C11   15  -0.200   0.084  -0.196
    1UNL     O5   16  -0.222   0.069  -0.052
    1UNL    C12   17  -0.308   0.169  -0.000
    1UNL    C13   18  -0.316   0.148   0.150
    1UNL     O6   19  -0.332   0.019   0.193
    1UNL    C14   20  -0.295   0.318  -0.063
    1UNL     O7   21  -0.313   0.419   0.037
    1UNL    C15   22  -0.161   0.329  -0.138
    1UNL     O8   23  -0.174   0.447  -0.225
    1UNL    C16   24  -0.115   0.214  -0.221
    1UNL     O9   25   0.020   0.180  -0.200
    1UNL    C17   26  -0.278  -0.346  -0.064
    1UNL    O10   27  -0.237  -0.477  -0.099
    1UNL    C18   28  -0.288  -0.338   0.091
    1UNL    O11   29  -0.384  -0.433   0.138
    1UNL    C19   30  -0.150  -0.350   0.161
    1UNL    O12   31  -0.112  -0.479   0.129
    1UNL    C20   32   0.193  -0.081   0.046
    1UNL    C21   33   0.080   0.018   0.088
    1UNL    O13   34   0.118   0.151   0.047
    1UNL    C22   35   0.072   0.244   0.135
    1UNL    O14   36  -0.016   0.222   0.217
    1UNL    C23   37   0.133   0.376   0.127
    1UNL    C24   38   0.269   0.389   0.112
    1UNL    C25   39   0.337   0.512   0.106
    1UNL    C26   40   0.258   0.624   0.093
    1UNL    C27   41   0.121   0.614   0.094
    1UNL    C28   42   0.058   0.492   0.113
    1UNL    C29   43   0.298  -0.097   0.154
    1UNL    O15   44   0.344  -0.004   0.216
    1UNL    O16   45   0.338  -0.228   0.158
    1UNL     H1   46   0.199  -0.480   0.025
    1UNL     H2   47   0.271  -0.453   0.177
    1UNL     H3   48   0.375  -0.506   0.049
    1UNL     H4   49   0.405  -0.334  -0.164
    1UNL     H5   50   0.497  -0.280  -0.009
    1UNL     H6   51   0.436  -0.113  -0.224
    1UNL     H7   52   0.452   0.003   0.035
    1UNL     H8   53   0.239   0.041  -0.139
    1UNL     H9   54   0.044  -0.137  -0.162
    1UNL    H10   55   0.170  -0.246  -0.236
    1UNL    H11   56  -0.014  -0.180   0.172
    1UNL    H12   57  -0.088  -0.292  -0.151
    1UNL    H13   58  -0.336  -0.112  -0.183
    1UNL    H14   59  -0.247  -0.211  -0.305
    1UNL    H15   60  -0.300   0.099  -0.245
    1UNL    H16   61  -0.417   0.137  -0.030
    1UNL    H17   62  -0.397   0.197   0.203
    1UNL    H18   63  -0.225   0.183   0.200
    1UNL    H19   64  -0.260  -0.035   0.149
    1UNL    H20   65  -0.380   0.342  -0.133
    1UNL    H21   66  -0.404   0.410   0.076
    1UNL    H22   67  -0.087   0.349  -0.058
    1UNL    H23   68  -0.200   0.528  -0.167
    1UNL    H24   69  -0.110   0.251  -0.331
    1UNL    H25   70   0.032   0.116  -0.118
    1UNL    H26   71  -0.376  -0.317  -0.121
    1UNL    H27   72  -0.306  -0.539  -0.066
    1UNL    H28   73  -0.326  -0.243   0.120
    1UNL    H29   74  -0.335  -0.513   0.173
    1UNL    H30   75  -0.175  -0.343   0.263
    1UNL    H31   76  -0.096  -0.485   0.035
    1UNL    H32   77  -0.010  -0.002   0.025
    1UNL    H33   78   0.061   0.031   0.195
    1UNL    H34   79   0.327   0.294   0.122
    1UNL    H35   80   0.444   0.512   0.102
    1UNL    H36   81   0.305   0.725   0.097
    1UNL    H37   82   0.060   0.711   0.098
    1UNL    H38   83  -0.049   0.488   0.116
   0.00000   0.00000   0.00000   0.00000   0.00000   0.00000   0.00000   0.00000   0.00000
Generated with MDTraj, t= 25.0
 83
    1UNL     C1    1   0.286  -0.457   0.062
    1UNL     C2    2   0.293  -0.302   0.028
    1UNL     C3    3   0.403  -0.262  -0.081
    1UNL     C4    4   0.399  -0.115  -0.118
    1UNL     O1    5   0.486  -0.039  -0.037
    1UNL     C5    6   0.249  -0.064  -0.100
    1UNL     C6    7   0.142  -0.166  -0.146
    1UNL     C7    8   0.151  -0.231  -0.006
    1UNL     O2    9   0.044  -0.314   0.046
    1UNL     C8   10  -0.070  -0.242   0.097
    1UNL     O3   11  -0.137  -0.156   0.006
    1UNL     C9   12  -0.175  -0.238  -0.111
    1UNL    C10   13  -0.231  -0.149  -0.223
    1UNL     O4   14  -0.150  -0.044  -0.266
    1UNL    C11   15  -0.189   0.079  -0.209
    1UNL     O5   16  -0.219   0.060  -0.070
    1UNL    C12   17  -0.313   0.158  -0.006
    1UNL    C13   18  -0.279   0.145   0.143
    1UNL     O6   19  -0.268   0.012   0.193
    1UNL    C14   20  -0.301   0.301  -0.072
    1UNL     O7   21  -0.349   0.406   0.002
    1UNL    C15   22  -0.157   0.321  -0.116
    1UNL     O8   23  -0.139   0.459  -0.159
    1UNL    C16   24  -0.116   0.218  -0.223
    1UNL     O9   25   0.023   0.204  -0.224
    1UNL    C17   26  -0.276  -0.349  -0.067
    1UNL    O10   27  -0.221  -0.469  -0.101
    1UNL    C18   28  -0.308  -0.350   0.085
    1UNL    O11   29  -0.394  -0.451   0.122
    1UNL    C19   30  -0.181  -0.332   0.174
    1UNL    O12   31  -0.129  -0.459   0.188
    1UNL    C20   32   0.192  -0.089   0.047
    1UNL    C21   33   0.094   0.021   0.090
    1UNL    O13   34   0.152   0.153   0.069
    1UNL    C22   35   0.089   0.248   0.146
    1UNL    O14   36  -0.002   0.220   0.222
    1UNL    C23   37   0.144   0.386   0.130
    1UNL    C24   38   0.273   0.406   0.084
    1UNL    C25   39   0.313   0.537   0.063
    1UNL    C26   40   0.227   0.643   0.078
    1UNL    C27   41   0.092   0.614   0.110
    1UNL    C28   42   0.055   0.489   0.145
    1UNL    C29   43   0.304  -0.112   0.154
    1UNL    O15   44   0.346  -0.031   0.231
    1UNL    O16   45   0.347  -0.241   0.151
    1UNL     H1   46   0.319  -0.510  -0.029
    1UNL     H2   47   0.196  -0.497   0.087
    1UNL     H3   48   0.353  -0.472   0.141
    1UNL     H4   49   0.372  -0.329  -0.169
    1UNL     H5   50   0.503  -0.287  -0.042
    1UNL     H6   51   0.435  -0.099  -0.221
    1UNL     H7   52   0.470  -0.064   0.057
    1UNL     H8   53   0.226   0.038  -0.143
    1UNL     H9   54   0.045  -0.120  -0.172
    1UNL    H10   55   0.164  -0.240  -0.234
    1UNL    H11   56  -0.019  -0.177   0.173
    1UNL    H12   57  -0.082  -0.275  -0.141
    1UNL    H13   58  -0.344  -0.121  -0.206
    1UNL    H14   59  -0.233  -0.218  -0.311
    1UNL    H15   60  -0.289   0.094  -0.253
    1UNL    H16   61  -0.420   0.118  -0.028
    1UNL    H17   62  -0.366   0.178   0.203
    1UNL    H18   63  -0.188   0.200   0.177
    1UNL    H19   64  -0.232  -0.045   0.120
    1UNL    H20   65  -0.355   0.307  -0.171
    1UNL    H21   66  -0.437   0.390   0.043
    1UNL    H22   67  -0.090   0.306  -0.029
    1UNL    H23   68  -0.178   0.516  -0.089
    1UNL    H24   69  -0.134   0.273  -0.326
    1UNL    H25   70   0.060   0.206  -0.135
    1UNL    H26   71  -0.374  -0.335  -0.125
    1UNL    H27   72  -0.286  -0.543  -0.080
    1UNL    H28   73  -0.356  -0.253   0.103
    1UNL    H29   74  -0.339  -0.526   0.147
    1UNL    H30   75  -0.205  -0.298   0.273
    1UNL    H31   76  -0.092  -0.481   0.096
    1UNL    H32   77  -0.001   0.028   0.035
    1UNL    H33   78   0.081   0.018   0.197
    1UNL    H34   79   0.331   0.328   0.058
    1UNL    H35   80   0.414   0.542   0.018
    1UNL    H36   81   0.258   0.738   0.041
    1UNL    H37   82   0.033   0.693   0.103
    1UNL    H38   83  -0.047   0.463   0.171
   0.00000   0.00000   0.00000   0.00000   0.00000   0.00000   0.00000   0.00000   0.00000
Generated with MDTraj, t= 26.0
 83
    1UNL     C1    1   0.255  -0.464   0.027
    1UNL     C2    2   0.290  -0.308   0.025
    1UNL     C3    3   0.386  -0.273  -0.089
    1UNL     C4    4   0.391  -0.125  -0.120
    1UNL     O1    5   0.491  -0.063  -0.040
    1UNL     C5    6   0.251  -0.062  -0.089
    1UNL     C6    7   0.138  -0.162  -0.135
    1UNL     C7    8   0.149  -0.224   0.007
    1UNL     O2    9   0.043  -0.300   0.071
    1UNL     C8   10  -0.067  -0.224   0.099
    1UNL     O3   11  -0.110  -0.151  -0.009
    1UNL     C9   12  -0.158  -0.239  -0.118
    1UNL    C10   13  -0.197  -0.158  -0.239
    1UNL     O4   14  -0.128  -0.041  -0.260
    1UNL    C11   15  -0.195   0.074  -0.201
    1UNL     O5   16  -0.249   0.044  -0.062
    1UNL    C12   17  -0.331   0.159  -0.001
    1UNL    C13   18  -0.301   0.167   0.148
    1UNL     O6   19  -0.276   0.031   0.194
    1UNL    C14   20  -0.299   0.302  -0.065
    1UNL     O7   21  -0.334   0.410   0.015
    1UNL    C15   22  -0.148   0.312  -0.104
    1UNL     O8   23  -0.109   0.445  -0.142
    1UNL    C16   24  -0.107   0.208  -0.212
    1UNL     O9   25   0.029   0.176  -0.194
    1UNL    C17   26  -0.263  -0.342  -0.079
    1UNL    O10   27  -0.207  -0.466  -0.103
    1UNL    C18   28  -0.302  -0.332   0.070
    1UNL    O11   29  -0.372  -0.450   0.104
    1UNL    C19   30  -0.177  -0.317   0.163
    1UNL    O12   31  -0.123  -0.444   0.189
    1UNL    C20   32   0.197  -0.082   0.063
    1UNL    C21   33   0.095   0.025   0.106
    1UNL    O13   34   0.136   0.149   0.058
    1UNL    C22   35   0.077   0.248   0.133
    1UNL    O14   36   0.003   0.226   0.227
    1UNL    C23   37   0.127   0.387   0.099
    1UNL    C24   38   0.245   0.418   0.028
    1UNL    C25   39   0.279   0.547   0.022
    1UNL    C26   40   0.209   0.649   0.075
    1UNL    C27   41   0.086   0.621   0.138
    1UNL    C28   42   0.053   0.489   0.156
    1UNL    C29   43   0.305  -0.127   0.166
    1UNL    O15   44   0.358  -0.049   0.241
    1UNL    O16   45   0.340  -0.262   0.148
    1UNL     H1   46   0.151  -0.486   0.002
    1UNL     H2   47   0.259  -0.491   0.128
    1UNL     H3   48   0.325  -0.530  -0.013
    1UNL     H4   49   0.368  -0.344  -0.177
    1UNL     H5   50   0.485  -0.290  -0.044
    1UNL     H6   51   0.407  -0.110  -0.225
    1UNL     H7   52   0.460  -0.056   0.053
    1UNL     H8   53   0.235   0.045  -0.125
    1UNL     H9   54   0.040  -0.111  -0.156
    1UNL    H10   55   0.166  -0.237  -0.215
    1UNL    H11   56  -0.032  -0.151   0.181
    1UNL    H12   57  -0.072  -0.298  -0.134
    1UNL    H13   58  -0.309  -0.133  -0.222
    1UNL    H14   59  -0.201  -0.221  -0.328
    1UNL    H15   60  -0.285   0.088  -0.258
    1UNL    H16   61  -0.442   0.131  -0.019
    1UNL    H17   62  -0.383   0.217   0.208
    1UNL    H18   63  -0.205   0.220   0.161
    1UNL    H19   64  -0.233  -0.031   0.129
    1UNL    H20   65  -0.360   0.313  -0.158
    1UNL    H21   66  -0.429   0.403   0.038
    1UNL    H22   67  -0.090   0.284  -0.014
    1UNL    H23   68  -0.143   0.502  -0.068
    1UNL    H24   69  -0.113   0.266  -0.318
    1UNL    H25   70   0.059   0.201  -0.100
    1UNL    H26   71  -0.356  -0.349  -0.141
    1UNL    H27   72  -0.268  -0.533  -0.072
    1UNL    H28   73  -0.370  -0.244   0.077
    1UNL    H29   74  -0.344  -0.484   0.195
    1UNL    H30   75  -0.206  -0.279   0.261
    1UNL    H31   76  -0.094  -0.469   0.102
    1UNL    H32   77   0.001   0.011   0.050
    1UNL    H33   78   0.084   0.038   0.211
    1UNL    H34   79   0.297   0.329  -0.028
    1UNL    H35   80   0.363   0.575  -0.035
    1UNL    H36   81   0.249   0.751   0.065
    1UNL    H37   82   0.006   0.699   0.169
    1UNL    H38   83  -0.030   0.456   0.215
   0.00000   0.00000   0.00000   0.00000   0.00000   0.00000   0.00000   0.00000   0.00000
Generated with MDTraj, t= 27.0
 83
    1UNL     C1    1   0.256  -0.457   0.024
    1UNL     C2    2   0.291  -0.311   0.019
    1UNL     C3    3   0.391  -0.285  -0.099
    1UNL     C4    4   0.400  -0.130  -0.119
    1UNL     O1    5   0.518  -0.079  -0.044
    1UNL     C5    6   0.258  -0.058  -0.080
    1UNL     C6    7   0.139  -0.149  -0.130
    1UNL     C7    8   0.157  -0.224   0.008
    1UNL     O2    9   0.040  -0.306   0.053
    1UNL     C8   10  -0.070  -0.230   0.097
    1UNL     O3   11  -0.123  -0.148  -0.006
    1UNL     C9   12  -0.171  -0.229  -0.115
    1UNL    C10   13  -0.229  -0.144  -0.224
    1UNL     O4   14  -0.148  -0.036  -0.254
    1UNL    C11   15  -0.194   0.092  -0.204
    1UNL     O5   16  -0.241   0.071  -0.073
    1UNL    C12   17  -0.317   0.172  -0.015
    1UNL    C13   18  -0.312   0.144   0.133
    1UNL     O6   19  -0.347   0.007   0.158
    1UNL    C14   20  -0.287   0.319  -0.069
    1UNL     O7   21  -0.311   0.410   0.036
    1UNL    C15   22  -0.134   0.327  -0.108
    1UNL     O8   23  -0.101   0.456  -0.154
    1UNL    C16   24  -0.089   0.207  -0.204
    1UNL     O9   25   0.037   0.165  -0.183
    1UNL    C17   26  -0.258  -0.349  -0.068
    1UNL    O10   27  -0.181  -0.468  -0.085
    1UNL    C18   28  -0.310  -0.333   0.078
    1UNL    O11   29  -0.393  -0.451   0.107
    1UNL    C19   30  -0.181  -0.327   0.164
    1UNL    O12   31  -0.129  -0.451   0.191
    1UNL    C20   32   0.210  -0.083   0.071
    1UNL    C21   33   0.119   0.022   0.125
    1UNL    O13   34   0.168   0.149   0.098
    1UNL    C22   35   0.080   0.246   0.144
    1UNL    O14   36  -0.024   0.223   0.201
    1UNL    C23   37   0.121   0.386   0.117
    1UNL    C24   38   0.203   0.418   0.012
    1UNL    C25   39   0.231   0.540  -0.028
    1UNL    C26   40   0.173   0.649   0.040
    1UNL    C27   41   0.096   0.623   0.151
    1UNL    C28   42   0.073   0.491   0.193
    1UNL    C29   43   0.323  -0.126   0.169
    1UNL    O15   44   0.387  -0.052   0.243
    1UNL    O16   45   0.352  -0.260   0.145
    1UNL     H1   46   0.267  -0.504  -0.066
    1UNL     H2   47   0.158  -0.483   0.061
    1UNL     H3   48   0.324  -0.501   0.090
    1UNL     H4   49   0.345  -0.336  -0.187
    1UNL     H5   50   0.496  -0.318  -0.080
    1UNL     H6   51   0.421  -0.114  -0.224
    1UNL     H7   52   0.498  -0.060   0.051
    1UNL     H8   53   0.246   0.047  -0.123
    1UNL     H9   54   0.035  -0.101  -0.121
    1UNL    H10   55   0.160  -0.205  -0.222
    1UNL    H11   56  -0.030  -0.166   0.187
    1UNL    H12   57  -0.085  -0.266  -0.165
    1UNL    H13   58  -0.328  -0.101  -0.188
    1UNL    H14   59  -0.255  -0.194  -0.315
    1UNL    H15   60  -0.277   0.117  -0.265
    1UNL    H16   61  -0.426   0.159  -0.040
    1UNL    H17   62  -0.390   0.208   0.188
    1UNL    H18   63  -0.211   0.162   0.179
    1UNL    H19   64  -0.272  -0.039   0.109
    1UNL    H20   65  -0.352   0.349  -0.154
    1UNL    H21   66  -0.407   0.412   0.058
    1UNL    H22   67  -0.067   0.307  -0.023
    1UNL    H23   68  -0.147   0.522  -0.091
    1UNL    H24   69  -0.088   0.252  -0.317
    1UNL    H25   70   0.048   0.154  -0.082
    1UNL    H26   71  -0.340  -0.360  -0.141
    1UNL    H27   72  -0.238  -0.548  -0.082
    1UNL    H28   73  -0.371  -0.237   0.083
    1UNL    H29   74  -0.356  -0.502   0.179
    1UNL    H30   75  -0.207  -0.293   0.269
    1UNL    H31   76  -0.098  -0.476   0.096
    1UNL    H32   77   0.018   0.021   0.081
    1UNL    H33   78   0.122   0.015   0.231
    1UNL    H34   79   0.244   0.340  -0.042
    1UNL    H35   80   0.295   0.569  -0.112
    1UNL    H36   81   0.206   0.750   0.026
    1UNL    H37   82   0.074   0.706   0.216
    1UNL    H38   83   0.008   0.465   0.276
   0.00000   0.00000   0.00000   0.00000   0.00000   0.00000   0.00000   0.00000   0.00000
Generated with MDTraj, t= 28.0
 83
    1UNL     C1    1   0.260  -0.466   0.028
    1UNL     C2    2   0.292  -0.314   0.025
    1UNL     C3    3   0.387  -0.273  -0.092
    1UNL     C4    4   0.384  -0.123  -0.116
    1UNL     O1    5   0.495  -0.057  -0.045
    1UNL     C5    6   0.253  -0.057  -0.076
    1UNL     C6    7   0.139  -0.154  -0.114
    1UNL     C7    8   0.162  -0.225   0.023
    1UNL     O2    9   0.045  -0.298   0.072
    1UNL     C8   10  -0.070  -0.219   0.109
    1UNL     O3   11  -0.126  -0.143   0.003
    1UNL     C9   12  -0.167  -0.218  -0.109
    1UNL    C10   13  -0.230  -0.133  -0.220
    1UNL     O4   14  -0.145  -0.027  -0.253
    1UNL    C11   15  -0.196   0.095  -0.202
    1UNL     O5   16  -0.244   0.082  -0.070
    1UNL    C12   17  -0.325   0.191  -0.027
    1UNL    C13   18  -0.340   0.154   0.127
    1UNL     O6   19  -0.342   0.021   0.154
    1UNL    C14   20  -0.274   0.331  -0.072
    1UNL     O7   21  -0.293   0.424   0.030
    1UNL    C15   22  -0.123   0.328  -0.108
    1UNL     O8   23  -0.090   0.455  -0.157
    1UNL    C16   24  -0.084   0.208  -0.210
    1UNL     O9   25   0.041   0.144  -0.182
    1UNL    C17   26  -0.257  -0.336  -0.067
    1UNL    O10   27  -0.190  -0.452  -0.103
    1UNL    C18   28  -0.310  -0.332   0.081
    1UNL    O11   29  -0.379  -0.455   0.111
    1UNL    C19   30  -0.177  -0.324   0.167
    1UNL    O12   31  -0.106  -0.444   0.174
    1UNL    C20   32   0.218  -0.092   0.075
    1UNL    C21   33   0.130   0.012   0.140
    1UNL    O13   34   0.181   0.139   0.120
    1UNL    C22   35   0.082   0.230   0.138
    1UNL    O14   36  -0.028   0.202   0.180
    1UNL    C23   37   0.117   0.370   0.111
    1UNL    C24   38   0.169   0.410  -0.013
    1UNL    C25   39   0.183   0.542  -0.049
    1UNL    C26   40   0.142   0.642   0.041
    1UNL    C27   41   0.103   0.602   0.163
    1UNL    C28   42   0.081   0.472   0.196
    1UNL    C29   43   0.335  -0.140   0.161
    1UNL    O15   44   0.393  -0.069   0.243
    1UNL    O16   45   0.363  -0.275   0.143
    1UNL     H1   46   0.170  -0.489  -0.014
    1UNL     H2   47   0.264  -0.503   0.129
    1UNL     H3   48   0.332  -0.520  -0.025
    1UNL     H4   49   0.363  -0.319  -0.188
    1UNL     H5   50   0.492  -0.303  -0.062
    1UNL     H6   51   0.401  -0.109  -0.224
    1UNL     H7   52   0.489  -0.054   0.053
    1UNL     H8   53   0.244   0.050  -0.115
    1UNL     H9   54   0.034  -0.112  -0.122
    1UNL    H10   55   0.151  -0.222  -0.198
    1UNL    H11   56  -0.034  -0.154   0.202
    1UNL    H12   57  -0.078  -0.262  -0.148
    1UNL    H13   58  -0.331  -0.090  -0.198
    1UNL    H14   59  -0.247  -0.184  -0.311
    1UNL    H15   60  -0.278   0.114  -0.267
    1UNL    H16   61  -0.420   0.179  -0.079
    1UNL    H17   62  -0.433   0.201   0.173
    1UNL    H18   63  -0.253   0.196   0.184
    1UNL    H19   64  -0.278  -0.034   0.095
    1UNL    H20   65  -0.329   0.369  -0.158
    1UNL    H21   66  -0.389   0.433   0.048
    1UNL    H22   67  -0.065   0.301  -0.020
    1UNL    H23   68  -0.144   0.516  -0.110
    1UNL    H24   69  -0.090   0.251  -0.322
    1UNL    H25   70   0.018   0.091  -0.110
    1UNL    H26   71  -0.347  -0.335  -0.126
    1UNL    H27   72  -0.257  -0.525  -0.092
    1UNL    H28   73  -0.378  -0.244   0.106
    1UNL    H29   74  -0.303  -0.523   0.110
    1UNL    H30   75  -0.201  -0.310   0.280
    1UNL    H31   76  -0.069  -0.456   0.075
    1UNL    H32   77   0.031   0.019   0.087
    1UNL    H33   78   0.125  -0.005   0.248
    1UNL    H34   79   0.187   0.337  -0.093
    1UNL    H35   80   0.226   0.566  -0.143
    1UNL    H36   81   0.155   0.747   0.011
    1UNL    H37   82   0.097   0.670   0.240
    1UNL    H38   83   0.028   0.439   0.283
   0.00000   0.00000   0.00000   0.00000   0.00000   0.00000   0.00000   0.00000   0.00000
Generated with MDTraj, t= 29.0
 83
    1UNL     C1    1   0.272  -0.469   0.012
    1UNL     C2    2   0.301  -0.316   0.010
    1UNL     C3    3   0.393  -0.272  -0.108
    1UNL     C4    4   0.398  -0.122  -0.114
    1UNL     O1    5   0.511  -0.070  -0.043
    1UNL     C5    6   0.268  -0.056  -0.064
    1UNL     C6    7   0.145  -0.141  -0.116
    1UNL     C7    8   0.162  -0.230   0.008
    1UNL     O2    9   0.055  -0.302   0.068
    1UNL     C8   10  -0.060  -0.236   0.106
    1UNL     O3   11  -0.114  -0.153   0.012
    1UNL     C9   12  -0.158  -0.235  -0.100
    1UNL    C10   13  -0.208  -0.148  -0.220
    1UNL     O4   14  -0.131  -0.027  -0.250
    1UNL    C11   15  -0.193   0.094  -0.206
    1UNL     O5   16  -0.272   0.073  -0.088
    1UNL    C12   17  -0.337   0.193  -0.027
    1UNL    C13   18  -0.313   0.193   0.123
    1UNL     O6   19  -0.316   0.061   0.167
    1UNL    C14   20  -0.285   0.328  -0.084
    1UNL     O7   21  -0.323   0.448  -0.005
    1UNL    C15   22  -0.133   0.339  -0.107
    1UNL     O8   23  -0.104   0.465  -0.166
    1UNL    C16   24  -0.090   0.213  -0.199
    1UNL     O9   25   0.041   0.161  -0.160
    1UNL    C17   26  -0.268  -0.342  -0.065
    1UNL    O10   27  -0.220  -0.470  -0.098
    1UNL    C18   28  -0.306  -0.336   0.087
    1UNL    O11   29  -0.392  -0.445   0.101
    1UNL    C19   30  -0.165  -0.337   0.168
    1UNL    O12   31  -0.114  -0.463   0.195
    1UNL    C20   32   0.221  -0.103   0.081
    1UNL    C21   33   0.126   0.007   0.140
    1UNL    O13   34   0.160   0.141   0.107
    1UNL    C22   35   0.065   0.229   0.137
    1UNL    O14   36  -0.042   0.198   0.186
    1UNL    C23   37   0.110   0.374   0.115
    1UNL    C24   38   0.172   0.401  -0.006
    1UNL    C25   39   0.182   0.541  -0.038
    1UNL    C26   40   0.147   0.640   0.050
    1UNL    C27   41   0.102   0.605   0.175
    1UNL    C28   42   0.074   0.476   0.201
    1UNL    C29   43   0.346  -0.147   0.161
    1UNL    O15   44   0.407  -0.079   0.243
    1UNL    O16   45   0.363  -0.279   0.132
    1UNL     H1   46   0.284  -0.516  -0.084
    1UNL     H2   47   0.175  -0.477   0.046
    1UNL     H3   48   0.332  -0.518   0.081
    1UNL     H4   49   0.356  -0.317  -0.198
    1UNL     H5   50   0.501  -0.307  -0.099
    1UNL     H6   51   0.424  -0.098  -0.220
    1UNL     H7   52   0.507  -0.092   0.053
    1UNL     H8   53   0.265   0.058  -0.059
    1UNL     H9   54   0.050  -0.086  -0.116
    1UNL    H10   55   0.159  -0.196  -0.213
    1UNL    H11   56  -0.029  -0.167   0.198
    1UNL    H12   57  -0.076  -0.304  -0.122
    1UNL    H13   58  -0.306  -0.112  -0.197
    1UNL    H14   59  -0.214  -0.193  -0.313
    1UNL    H15   60  -0.262   0.120  -0.284
    1UNL    H16   61  -0.438   0.177  -0.058
    1UNL    H17   62  -0.378   0.260   0.186
    1UNL    H18   63  -0.209   0.227   0.138
    1UNL    H19   64  -0.268   0.000   0.102
    1UNL    H20   65  -0.332   0.342  -0.180
    1UNL    H21   66  -0.418   0.450   0.020
    1UNL    H22   67  -0.079   0.326  -0.016
    1UNL    H23   68  -0.171   0.526  -0.119
    1UNL    H24   69  -0.069   0.267  -0.304
    1UNL    H25   70   0.047   0.135  -0.063
    1UNL    H26   71  -0.351  -0.335  -0.128
    1UNL    H27   72  -0.288  -0.533  -0.068
    1UNL    H28   73  -0.364  -0.240   0.106
    1UNL    H29   74  -0.413  -0.453   0.193
    1UNL    H30   75  -0.191  -0.303   0.278
    1UNL    H31   76  -0.061  -0.489   0.122
    1UNL    H32   77   0.026  -0.002   0.086
    1UNL    H33   78   0.117  -0.001   0.250
    1UNL    H34   79   0.186   0.326  -0.084
    1UNL    H35   80   0.214   0.573  -0.137
    1UNL    H36   81   0.155   0.742   0.021
    1UNL    H37   82   0.068   0.689   0.250
    1UNL    H38   83   0.026   0.446   0.293
   0.00000   0.00000   0.00000   0.00000   0.00000   0.00000   0.00000   0.00000   0.00000
Generated with MDTraj, t= 30.0
 83
    1UNL     C1    1   0.264  -0.477   0.011
    1UNL     C2    2   0.292  -0.318   0.010
    1UNL     C3    3   0.396  -0.278  -0.107
    1UNL     C4    4   0.402  -0.126  -0.122
    1UNL     O1    5   0.505  -0.060  -0.047
    1UNL     C5    6   0.264  -0.062  -0.084
    1UNL     C6    7   0.148  -0.148  -0.133
    1UNL     C7    8   0.164  -0.234  -0.004
    1UNL     O2    9   0.052  -0.309   0.044
    1UNL     C8   10  -0.051  -0.234   0.113
    1UNL     O3   11  -0.109  -0.139   0.013
    1UNL     C9   12  -0.165  -0.219  -0.093
    1UNL    C10   13  -0.223  -0.141  -0.213
    1UNL     O4   14  -0.132  -0.035  -0.255
    1UNL    C11   15  -0.181   0.086  -0.199
    1UNL     O5   16  -0.227   0.080  -0.066
    1UNL    C12   17  -0.322   0.176  -0.036
    1UNL    C13   18  -0.325   0.196   0.114
    1UNL     O6   19  -0.322   0.062   0.175
    1UNL    C14   20  -0.304   0.310  -0.117
    1UNL     O7   21  -0.377   0.427  -0.070
    1UNL    C15   22  -0.152   0.342  -0.122
    1UNL     O8   23  -0.129   0.467  -0.185
    1UNL    C16   24  -0.091   0.217  -0.203
    1UNL     O9   25   0.034   0.187  -0.149
    1UNL    C17   26  -0.265  -0.330  -0.049
    1UNL    O10   27  -0.215  -0.455  -0.079
    1UNL    C18   28  -0.301  -0.326   0.103
    1UNL    O11   29  -0.379  -0.432   0.136
    1UNL    C19   30  -0.160  -0.333   0.171
    1UNL    O12   31  -0.112  -0.461   0.165
    1UNL    C20   32   0.217  -0.100   0.064
    1UNL    C21   33   0.128   0.005   0.131
    1UNL    O13   34   0.178   0.135   0.115
    1UNL    C22   35   0.091   0.230   0.154
    1UNL    O14   36  -0.001   0.191   0.223
    1UNL    C23   37   0.113   0.375   0.122
    1UNL    C24   38   0.202   0.406   0.020
    1UNL    C25   39   0.218   0.541  -0.014
    1UNL    C26   40   0.165   0.633   0.069
    1UNL    C27   41   0.085   0.604   0.181
    1UNL    C28   42   0.060   0.470   0.209
    1UNL    C29   43   0.325  -0.152   0.160
    1UNL    O15   44   0.372  -0.082   0.247
    1UNL    O16   45   0.352  -0.283   0.134
    1UNL     H1   46   0.170  -0.494  -0.041
    1UNL     H2   47   0.265  -0.517   0.104
    1UNL     H3   48   0.336  -0.521  -0.049
    1UNL     H4   49   0.381  -0.338  -0.196
    1UNL     H5   50   0.502  -0.307  -0.081
    1UNL     H6   51   0.422  -0.104  -0.231
    1UNL     H7   52   0.476  -0.053   0.048
    1UNL     H8   53   0.258   0.052  -0.088
    1UNL     H9   54   0.055  -0.097  -0.131
    1UNL    H10   55   0.176  -0.183  -0.238
    1UNL    H11   56  -0.001  -0.170   0.199
    1UNL    H12   57  -0.077  -0.273  -0.135
    1UNL    H13   58  -0.321  -0.098  -0.203
    1UNL    H14   59  -0.226  -0.207  -0.292
    1UNL    H15   60  -0.268   0.106  -0.262
    1UNL    H16   61  -0.413   0.134  -0.065
    1UNL    H17   62  -0.422   0.239   0.141
    1UNL    H18   63  -0.248   0.254   0.166
    1UNL    H19   64  -0.255   0.010   0.120
    1UNL    H20   65  -0.337   0.301  -0.219
    1UNL    H21   66  -0.472   0.404  -0.053
    1UNL    H22   67  -0.114   0.342  -0.021
    1UNL    H23   68  -0.198   0.522  -0.142
    1UNL    H24   69  -0.067   0.258  -0.312
    1UNL    H25   70   0.022   0.145  -0.058
    1UNL    H26   71  -0.349  -0.306  -0.107
    1UNL    H27   72  -0.281  -0.521  -0.052
    1UNL    H28   73  -0.356  -0.230   0.121
    1UNL    H29   74  -0.325  -0.513   0.126
    1UNL    H30   75  -0.180  -0.321   0.287
    1UNL    H31   76  -0.072  -0.471   0.068
    1UNL    H32   77   0.025  -0.001   0.078
    1UNL    H33   78   0.125  -0.011   0.240
    1UNL    H34   79   0.249   0.331  -0.037
    1UNL    H35   80   0.279   0.566  -0.101
    1UNL    H36   81   0.179   0.741   0.071
    1UNL    H37   82   0.054   0.676   0.247
    1UNL    H38   83  -0.003   0.450   0.294
   0.00000   0.00000   0.00000   0.00000   0.00000   0.00000   0.00000   0.00000   0.00000
Generated with MDTraj, t= 31.0
 83
    1UNL     C1    1   0.272  -0.472  -0.002
    1UNL     C2    2   0.299  -0.318  -0.001
    1UNL     C3    3   0.388  -0.274  -0.114
    1UNL     C4    4   0.400  -0.122  -0.119
    1UNL     O1    5   0.510  -0.073  -0.038
    1UNL     C5    6   0.264  -0.054  -0.086
    1UNL     C6    7   0.146  -0.144  -0.133
    1UNL     C7    8   0.164  -0.233  -0.007
    1UNL     O2    9   0.055  -0.310   0.055
    1UNL     C8   10  -0.049  -0.238   0.115
    1UNL     O3   11  -0.111  -0.151   0.013
    1UNL     C9   12  -0.153  -0.233  -0.089
    1UNL    C10   13  -0.188  -0.156  -0.217
    1UNL     O4   14  -0.106  -0.038  -0.230
    1UNL    C11   15  -0.183   0.080  -0.200
    1UNL     O5   16  -0.240   0.071  -0.072
    1UNL    C12   17  -0.329   0.178  -0.041
    1UNL    C13   18  -0.322   0.195   0.115
    1UNL     O6   19  -0.329   0.064   0.173
    1UNL    C14   20  -0.312   0.316  -0.119
    1UNL     O7   21  -0.375   0.423  -0.051
    1UNL    C15   22  -0.168   0.339  -0.150
    1UNL     O8   23  -0.147   0.450  -0.227
    1UNL    C16   24  -0.099   0.218  -0.215
    1UNL     O9   25   0.037   0.212  -0.179
    1UNL    C17   26  -0.274  -0.317  -0.047
    1UNL    O10   27  -0.250  -0.451  -0.086
    1UNL    C18   28  -0.297  -0.322   0.113
    1UNL    O11   29  -0.372  -0.439   0.147
    1UNL    C19   30  -0.156  -0.325   0.177
    1UNL    O12   31  -0.113  -0.452   0.170
    1UNL    C20   32   0.214  -0.100   0.058
    1UNL    C21   33   0.118   0.002   0.118
    1UNL    O13   34   0.146   0.132   0.083
    1UNL    C22   35   0.081   0.229   0.160
    1UNL    O14   36  -0.010   0.200   0.237
    1UNL    C23   37   0.126   0.370   0.148
    1UNL    C24   38   0.229   0.405   0.063
    1UNL    C25   39   0.258   0.538   0.029
    1UNL    C26   40   0.178   0.634   0.086
    1UNL    C27   41   0.079   0.604   0.178
    1UNL    C28   42   0.053   0.470   0.211
    1UNL    C29   43   0.321  -0.149   0.158
    1UNL    O15   44   0.379  -0.075   0.233
    1UNL    O16   45   0.359  -0.277   0.126
    1UNL     H1   46   0.286  -0.511  -0.099
    1UNL     H2   47   0.172  -0.479   0.027
    1UNL     H3   48   0.326  -0.530   0.066
    1UNL     H4   49   0.358  -0.312  -0.211
    1UNL     H5   50   0.483  -0.327  -0.096
    1UNL     H6   51   0.420  -0.092  -0.227
    1UNL     H7   52   0.481  -0.065   0.055
    1UNL     H8   53   0.260   0.057  -0.097
    1UNL     H9   54   0.048  -0.098  -0.128
    1UNL    H10   55   0.152  -0.196  -0.230
    1UNL    H11   56  -0.000  -0.159   0.186
    1UNL    H12   57  -0.068  -0.305  -0.110
    1UNL    H13   58  -0.291  -0.125  -0.204
    1UNL    H14   59  -0.180  -0.218  -0.300
    1UNL    H15   60  -0.272   0.081  -0.267
    1UNL    H16   61  -0.420   0.135  -0.070
    1UNL    H17   62  -0.383   0.264   0.171
    1UNL    H18   63  -0.221   0.220   0.138
    1UNL    H19   64  -0.275  -0.001   0.126
    1UNL    H20   65  -0.357   0.313  -0.218
    1UNL    H21   66  -0.464   0.386  -0.034
    1UNL    H22   67  -0.113   0.364  -0.058
    1UNL    H23   68  -0.205   0.521  -0.203
    1UNL    H24   69  -0.094   0.231  -0.331
    1UNL    H25   70   0.052   0.190  -0.090
    1UNL    H26   71  -0.363  -0.277  -0.088
    1UNL    H27   72  -0.323  -0.508  -0.046
    1UNL    H28   73  -0.358  -0.243   0.158
    1UNL    H29   74  -0.317  -0.491   0.210
    1UNL    H30   75  -0.166  -0.306   0.293
    1UNL    H31   76  -0.057  -0.460   0.095
    1UNL    H32   77   0.015  -0.014   0.071
    1UNL    H33   78   0.121  -0.012   0.225
    1UNL    H34   79   0.290   0.322   0.016
    1UNL    H35   80   0.334   0.564  -0.044
    1UNL    H36   81   0.208   0.737   0.075
    1UNL    H37   82   0.023   0.680   0.231
    1UNL    H38   83  -0.032   0.448   0.275
   0.00000   0.00000   0.00000   0.00000   0.00000   0.00000   0.00000   0.00000   0.00000
Generated with MDTraj, t= 32.0
 83
    1UNL     C1    1   0.279  -0.459   0.022
    1UNL     C2    2   0.306  -0.312   0.013
    1UNL     C3    3   0.408  -0.271  -0.103
    1UNL     C4    4   0.397  -0.114  -0.129
    1UNL     O1    5   0.500  -0.042  -0.068
    1UNL     C5    6   0.258  -0.058  -0.084
    1UNL     C6    7   0.147  -0.156  -0.125
    1UNL     C7    8   0.164  -0.233   0.010
    1UNL     O2    9   0.056  -0.308   0.057
    1UNL     C8   10  -0.049  -0.239   0.114
    1UNL     O3   11  -0.111  -0.155   0.012
    1UNL     C9   12  -0.171  -0.234  -0.088
    1UNL    C10   13  -0.221  -0.150  -0.209
    1UNL     O4   14  -0.133  -0.047  -0.252
    1UNL    C11   15  -0.184   0.077  -0.208
    1UNL     O5   16  -0.220   0.077  -0.068
    1UNL    C12   17  -0.319   0.167  -0.033
    1UNL    C13   18  -0.308   0.190   0.122
    1UNL     O6   19  -0.308   0.059   0.174
    1UNL    C14   20  -0.304   0.304  -0.110
    1UNL     O7   21  -0.340   0.417  -0.027
    1UNL    C15   22  -0.158   0.332  -0.167
    1UNL     O8   23  -0.154   0.454  -0.240
    1UNL    C16   24  -0.101   0.206  -0.246
    1UNL     O9   25   0.030   0.185  -0.210
    1UNL    C17   26  -0.293  -0.327  -0.044
    1UNL    O10   27  -0.269  -0.448  -0.109
    1UNL    C18   28  -0.302  -0.327   0.111
    1UNL    O11   29  -0.389  -0.420   0.162
    1UNL    C19   30  -0.160  -0.336   0.178
    1UNL    O12   31  -0.123  -0.475   0.161
    1UNL    C20   32   0.219  -0.099   0.068
    1UNL    C21   33   0.127   0.006   0.119
    1UNL    O13   34   0.156   0.136   0.087
    1UNL    C22   35   0.071   0.223   0.153
    1UNL    O14   36  -0.031   0.203   0.218
    1UNL    C23   37   0.115   0.369   0.139
    1UNL    C24   38   0.234   0.402   0.076
    1UNL    C25   39   0.282   0.532   0.082
    1UNL    C26   40   0.201   0.637   0.134
    1UNL    C27   41   0.076   0.607   0.178
    1UNL    C28   42   0.034   0.476   0.179
    1UNL    C29   43   0.331  -0.132   0.158
    1UNL    O15   44   0.384  -0.054   0.230
    1UNL    O16   45   0.372  -0.261   0.134
    1UNL     H1   46   0.195  -0.481  -0.030
    1UNL     H2   47   0.269  -0.483   0.128
    1UNL     H3   48   0.350  -0.524  -0.020
    1UNL     H4   49   0.377  -0.328  -0.193
    1UNL     H5   50   0.511  -0.301  -0.090
    1UNL     H6   51   0.416  -0.089  -0.237
    1UNL     H7   52   0.484  -0.039   0.030
    1UNL     H8   53   0.232   0.044  -0.117
    1UNL     H9   54   0.045  -0.108  -0.133
    1UNL    H10   55   0.157  -0.225  -0.207
    1UNL    H11   56   0.004  -0.165   0.185
    1UNL    H12   57  -0.096  -0.309  -0.125
    1UNL    H13   58  -0.312  -0.100  -0.173
    1UNL    H14   59  -0.247  -0.220  -0.285
    1UNL    H15   60  -0.287   0.085  -0.257
    1UNL    H16   61  -0.404   0.112  -0.064
    1UNL    H17   62  -0.398   0.229   0.163
    1UNL    H18   63  -0.225   0.242   0.159
    1UNL    H19   64  -0.240   0.002   0.130
    1UNL    H20   65  -0.374   0.314  -0.194
    1UNL    H21   66  -0.433   0.409   0.005
    1UNL    H22   67  -0.102   0.361  -0.076
    1UNL    H23   68  -0.215   0.528  -0.202
    1UNL    H24   69  -0.102   0.213  -0.361
    1UNL    H25   70   0.040   0.154  -0.111
    1UNL    H26   71  -0.383  -0.291  -0.093
    1UNL    H27   72  -0.303  -0.530  -0.067
    1UNL    H28   73  -0.354  -0.237   0.138
    1UNL    H29   74  -0.331  -0.494   0.192
    1UNL    H30   75  -0.169  -0.319   0.292
    1UNL    H31   76  -0.071  -0.479   0.073
    1UNL    H32   77   0.025  -0.019   0.077
    1UNL    H33   78   0.131   0.008   0.225
    1UNL    H34   79   0.284   0.332   0.019
    1UNL    H35   80   0.380   0.546   0.045
    1UNL    H36   81   0.252   0.729   0.125
    1UNL    H37   82   0.009   0.696   0.215
    1UNL    H38   83  -0.069   0.454   0.203
   0.00000   0.00000   0.00000   0.00000   0.00000   0.00000   0.00000   0.00000   0.00000
Generated with MDTraj, t= 33.0
 83
    1UNL     C1    1   0.294  -0.455   0.048
    1UNL     C2    2   0.307  -0.303   0.028
    1UNL     C3    3   0.397  -0.270  -0.096
    1UNL     C4    4   0.386  -0.115  -0.129
    1UNL     O1    5   0.489  -0.037  -0.070
    1UNL     C5    6   0.244  -0.063  -0.100
    1UNL     C6    7   0.136  -0.178  -0.142
    1UNL     C7    8   0.165  -0.234   0.006
    1UNL     O2    9   0.057  -0.305   0.065
    1UNL     C8   10  -0.061  -0.243   0.104
    1UNL     O3   11  -0.123  -0.158   0.005
    1UNL     C9   12  -0.178  -0.238  -0.100
    1UNL    C10   13  -0.239  -0.156  -0.217
    1UNL     O4   14  -0.150  -0.055  -0.253
    1UNL    C11   15  -0.185   0.076  -0.210
    1UNL     O5   16  -0.222   0.073  -0.068
    1UNL    C12   17  -0.307   0.175  -0.023
    1UNL    C13   18  -0.310   0.162   0.131
    1UNL     O6   19  -0.291   0.022   0.173
    1UNL    C14   20  -0.275   0.309  -0.090
    1UNL     O7   21  -0.300   0.426  -0.017
    1UNL    C15   22  -0.130   0.328  -0.153
    1UNL     O8   23  -0.130   0.448  -0.232
    1UNL    C16   24  -0.086   0.195  -0.234
    1UNL     O9   25   0.043   0.147  -0.200
    1UNL    C17   26  -0.297  -0.334  -0.045
    1UNL    O10   27  -0.273  -0.465  -0.097
    1UNL    C18   28  -0.305  -0.335   0.115
    1UNL    O11   29  -0.387  -0.430   0.186
    1UNL    C19   30  -0.166  -0.344   0.167
    1UNL    O12   31  -0.123  -0.473   0.146
    1UNL    C20   32   0.200  -0.084   0.049
    1UNL    C21   33   0.099   0.024   0.097
    1UNL    O13   34   0.148   0.146   0.073
    1UNL    C22   35   0.068   0.238   0.134
    1UNL    O14   36  -0.040   0.208   0.180
    1UNL    C23   37   0.122   0.377   0.145
    1UNL    C24   38   0.254   0.413   0.112
    1UNL    C25   39   0.296   0.540   0.123
    1UNL    C26   40   0.206   0.642   0.150
    1UNL    C27   41   0.072   0.612   0.168
    1UNL    C28   42   0.029   0.477   0.169
    1UNL    C29   43   0.316  -0.101   0.137
    1UNL    O15   44   0.372  -0.016   0.198
    1UNL    O16   45   0.365  -0.229   0.136
    1UNL     H1   46   0.284  -0.505  -0.044
    1UNL     H2   47   0.215  -0.476   0.116
    1UNL     H3   48   0.377  -0.500   0.091
    1UNL     H4   49   0.381  -0.330  -0.188
    1UNL     H5   50   0.496  -0.291  -0.065
    1UNL     H6   51   0.407  -0.092  -0.235
    1UNL     H7   52   0.472  -0.024   0.025
    1UNL     H8   53   0.224   0.038  -0.137
    1UNL     H9   54   0.032  -0.140  -0.135
    1UNL    H10   55   0.149  -0.240  -0.227
    1UNL    H11   56  -0.020  -0.170   0.178
    1UNL    H12   57  -0.093  -0.295  -0.145
    1UNL    H13   58  -0.340  -0.115  -0.192
    1UNL    H14   59  -0.241  -0.221  -0.308
    1UNL    H15   60  -0.281   0.103  -0.265
    1UNL    H16   61  -0.402   0.142  -0.066
    1UNL    H17   62  -0.395   0.207   0.178
    1UNL    H18   63  -0.222   0.200   0.173
    1UNL    H19   64  -0.216  -0.012   0.118
    1UNL    H20   65  -0.346   0.321  -0.176
    1UNL    H21   66  -0.391   0.425   0.021
    1UNL    H22   67  -0.063   0.354  -0.067
    1UNL    H23   68  -0.182   0.527  -0.197
    1UNL    H24   69  -0.077   0.214  -0.345
    1UNL    H25   70   0.055   0.148  -0.108
    1UNL    H26   71  -0.397  -0.294  -0.075
    1UNL    H27   72  -0.341  -0.528  -0.067
    1UNL    H28   73  -0.350  -0.244   0.147
    1UNL    H29   74  -0.347  -0.520   0.170
    1UNL    H30   75  -0.170  -0.342   0.281
    1UNL    H31   76  -0.101  -0.482   0.051
    1UNL    H32   77  -0.003   0.018   0.049
    1UNL    H33   78   0.087   0.015   0.201
    1UNL    H34   79   0.317   0.323   0.086
    1UNL    H35   80   0.405   0.556   0.113
    1UNL    H36   81   0.248   0.748   0.160
    1UNL    H37   82   0.008   0.688   0.180
    1UNL    H38   83  -0.072   0.447   0.193
   0.00000   0.00000   0.00000   0.00000   0.00000   0.00000   0.00000   0.00000   0.00000
Generated with MDTraj, t= 34.0
 83
    1UNL     C1    1   0.299  -0.437   0.073
    1UNL     C2    2   0.299  -0.291   0.022
    1UNL     C3    3   0.395  -0.267  -0.089
    1UNL     C4    4   0.389  -0.121  -0.150
    1UNL     O1    5   0.484  -0.041  -0.094
    1UNL     C5    6   0.243  -0.069  -0.115
    1UNL     C6    7   0.137  -0.180  -0.154
    1UNL     C7    8   0.156  -0.231  -0.005
    1UNL     O2    9   0.047  -0.313   0.045
    1UNL     C8   10  -0.057  -0.243   0.101
    1UNL     O3   11  -0.124  -0.164   0.002
    1UNL     C9   12  -0.185  -0.249  -0.092
    1UNL    C10   13  -0.217  -0.177  -0.220
    1UNL     O4   14  -0.134  -0.061  -0.254
    1UNL    C11   15  -0.184   0.062  -0.208
    1UNL     O5   16  -0.232   0.051  -0.070
    1UNL    C12   17  -0.309   0.163  -0.031
    1UNL    C13   18  -0.328   0.160   0.130
    1UNL     O6   19  -0.355   0.032   0.178
    1UNL    C14   20  -0.257   0.304  -0.080
    1UNL     O7   21  -0.267   0.400   0.027
    1UNL    C15   22  -0.103   0.300  -0.130
    1UNL     O8   23  -0.071   0.427  -0.179
    1UNL    C16   24  -0.087   0.185  -0.230
    1UNL     O9   25   0.052   0.142  -0.239
    1UNL    C17   26  -0.299  -0.338  -0.034
    1UNL    O10   27  -0.288  -0.468  -0.089
    1UNL    C18   28  -0.304  -0.334   0.118
    1UNL    O11   29  -0.377  -0.452   0.156
    1UNL    C19   30  -0.163  -0.340   0.178
    1UNL    O12   31  -0.112  -0.472   0.168
    1UNL    C20   32   0.187  -0.079   0.032
    1UNL    C21   33   0.082   0.033   0.063
    1UNL    O13   34   0.121   0.169   0.043
    1UNL    C22   35   0.062   0.259   0.133
    1UNL    O14   36  -0.028   0.217   0.201
    1UNL    C23   37   0.120   0.392   0.137
    1UNL    C24   38   0.256   0.417   0.147
    1UNL    C25   39   0.305   0.541   0.160
    1UNL    C26   40   0.223   0.653   0.165
    1UNL    C27   41   0.083   0.626   0.147
    1UNL    C28   42   0.032   0.498   0.144
    1UNL    C29   43   0.303  -0.084   0.130
    1UNL    O15   44   0.348   0.013   0.187
    1UNL    O16   45   0.349  -0.214   0.132
    1UNL     H1   46   0.291  -0.503  -0.016
    1UNL     H2   47   0.222  -0.456   0.138
    1UNL     H3   48   0.386  -0.464   0.123
    1UNL     H4   49   0.381  -0.343  -0.167
    1UNL     H5   50   0.492  -0.272  -0.047
    1UNL     H6   51   0.407  -0.114  -0.256
    1UNL     H7   52   0.453  -0.010  -0.005
    1UNL     H8   53   0.222   0.030  -0.151
    1UNL     H9   54   0.036  -0.150  -0.172
    1UNL    H10   55   0.165  -0.239  -0.239
    1UNL    H11   56  -0.010  -0.172   0.169
    1UNL    H12   57  -0.104  -0.321  -0.117
    1UNL    H13   58  -0.320  -0.131  -0.223
    1UNL    H14   59  -0.205  -0.250  -0.308
    1UNL    H15   60  -0.276   0.088  -0.267
    1UNL    H16   61  -0.406   0.144  -0.081
    1UNL    H17   62  -0.413   0.221   0.157
    1UNL    H18   63  -0.240   0.201   0.175
    1UNL    H19   64  -0.290  -0.033   0.141
    1UNL    H20   65  -0.318   0.338  -0.169
    1UNL    H21   66  -0.363   0.412   0.047
    1UNL    H22   67  -0.041   0.278  -0.043
    1UNL    H23   68  -0.091   0.498  -0.121
    1UNL    H24   69  -0.100   0.232  -0.330
    1UNL    H25   70   0.085   0.150  -0.139
    1UNL    H26   71  -0.401  -0.297  -0.064
    1UNL    H27   72  -0.357  -0.523  -0.043
    1UNL    H28   73  -0.357  -0.244   0.149
    1UNL    H29   74  -0.357  -0.463   0.248
    1UNL    H30   75  -0.174  -0.312   0.284
    1UNL    H31   76  -0.144  -0.499   0.084
    1UNL    H32   77  -0.012   0.019   0.003
    1UNL    H33   78   0.060   0.028   0.164
    1UNL    H34   79   0.316   0.332   0.160
    1UNL    H35   80   0.407   0.564   0.175
    1UNL    H36   81   0.258   0.745   0.185
    1UNL    H37   82   0.009   0.708   0.154
    1UNL    H38   83  -0.076   0.487   0.147
   0.00000   0.00000   0.00000   0.00000   0.00000   0.00000   0.00000   0.00000   0.00000
Generated with MDTraj, t= 35.0
 83
    1UNL     C1    1   0.283  -0.422   0.084
    1UNL     C2    2   0.295  -0.279   0.031
    1UNL     C3    3   0.397  -0.260  -0.085
    1UNL     C4    4   0.387  -0.116  -0.147
    1UNL     O1    5   0.480  -0.026  -0.101
    1UNL     C5    6   0.236  -0.067  -0.136
    1UNL     C6    7   0.129  -0.177  -0.152
    1UNL     C7    8   0.152  -0.221  -0.006
    1UNL     O2    9   0.051  -0.292   0.068
    1UNL     C8   10  -0.064  -0.232   0.118
    1UNL     O3   11  -0.136  -0.163   0.019
    1UNL     C9   12  -0.182  -0.247  -0.086
    1UNL    C10   13  -0.240  -0.164  -0.196
    1UNL     O4   14  -0.151  -0.062  -0.255
    1UNL    C11   15  -0.197   0.066  -0.217
    1UNL     O5   16  -0.235   0.068  -0.083
    1UNL    C12   17  -0.310   0.178  -0.036
    1UNL    C13   18  -0.326   0.134   0.117
    1UNL     O6   19  -0.349  -0.005   0.126
    1UNL    C14   20  -0.250   0.318  -0.076
    1UNL     O7   21  -0.266   0.414   0.023
    1UNL    C15   22  -0.101   0.300  -0.135
    1UNL     O8   23  -0.036   0.418  -0.165
    1UNL    C16   24  -0.105   0.193  -0.245
    1UNL     O9   25   0.034   0.154  -0.254
    1UNL    C17   26  -0.289  -0.346  -0.031
    1UNL    O10   27  -0.252  -0.486  -0.069
    1UNL    C18   28  -0.302  -0.332   0.124
    1UNL    O11   29  -0.384  -0.445   0.160
    1UNL    C19   30  -0.162  -0.339   0.187
    1UNL    O12   31  -0.101  -0.461   0.155
    1UNL    C20   32   0.182  -0.069   0.023
    1UNL    C21   33   0.074   0.028   0.054
    1UNL    O13   34   0.119   0.162   0.040
    1UNL    C22   35   0.073   0.238   0.143
    1UNL    O14   36  -0.015   0.197   0.216
    1UNL    C23   37   0.130   0.373   0.145
    1UNL    C24   38   0.263   0.389   0.175
    1UNL    C25   39   0.310   0.518   0.182
    1UNL    C26   40   0.222   0.624   0.167
    1UNL    C27   41   0.092   0.606   0.130
    1UNL    C28   42   0.044   0.483   0.122
    1UNL    C29   43   0.299  -0.070   0.124
    1UNL    O15   44   0.343   0.032   0.174
    1UNL    O16   45   0.344  -0.196   0.143
    1UNL     H1   46   0.209  -0.482   0.029
    1UNL     H2   47   0.251  -0.415   0.183
    1UNL     H3   48   0.376  -0.470   0.094
    1UNL     H4   49   0.394  -0.330  -0.168
    1UNL     H5   50   0.494  -0.257  -0.039
    1UNL     H6   51   0.412  -0.121  -0.251
    1UNL     H7   52   0.451   0.004  -0.012
    1UNL     H8   53   0.214   0.026  -0.188
    1UNL     H9   54   0.036  -0.133  -0.171
    1UNL    H10   55   0.141  -0.256  -0.226
    1UNL    H11   56  -0.029  -0.167   0.196
    1UNL    H12   57  -0.101  -0.311  -0.121
    1UNL    H13   58  -0.326  -0.104  -0.154
    1UNL    H14   59  -0.278  -0.225  -0.288
    1UNL    H15   60  -0.294   0.085  -0.267
    1UNL    H16   61  -0.413   0.183  -0.083
    1UNL    H17   62  -0.415   0.181   0.160
    1UNL    H18   63  -0.237   0.165   0.174
    1UNL    H19   64  -0.278  -0.042   0.066
    1UNL    H20   65  -0.302   0.364  -0.164
    1UNL    H21   66  -0.360   0.414   0.055
    1UNL    H22   67  -0.062   0.249  -0.048
    1UNL    H23   68  -0.078   0.492  -0.113
    1UNL    H24   69  -0.128   0.247  -0.335
    1UNL    H25   70   0.070   0.154  -0.169
    1UNL    H26   71  -0.389  -0.323  -0.083
    1UNL    H27   72  -0.328  -0.543  -0.081
    1UNL    H28   73  -0.354  -0.236   0.141
    1UNL    H29   74  -0.319  -0.519   0.158
    1UNL    H30   75  -0.173  -0.330   0.293
    1UNL    H31   76  -0.071  -0.453   0.056
    1UNL    H32   77  -0.003   0.013  -0.027
    1UNL    H33   78   0.033   0.021   0.149
    1UNL    H34   79   0.322   0.294   0.187
    1UNL    H35   80   0.417   0.527   0.192
    1UNL    H36   81   0.263   0.731   0.170
    1UNL    H37   82   0.030   0.699   0.103
    1UNL    H38   83  -0.059   0.453   0.108
   0.00000   0.00000   0.00000   0.00000   0.00000   0.00000   0.00000   0.00000   0.00000
Generated with MDTraj, t= 36.0
 83
    1UNL     C1    1   0.313  -0.423   0.098
    1UNL     C2    2   0.306  -0.284   0.036
    1UNL     C3    3   0.408  -0.266  -0.081
    1UNL     C4    4   0.383  -0.119  -0.144
    1UNL     O1    5   0.478  -0.025  -0.093
    1UNL     C5    6   0.230  -0.074  -0.134
    1UNL     C6    7   0.137  -0.197  -0.156
    1UNL     C7    8   0.160  -0.230  -0.002
    1UNL     O2    9   0.057  -0.314   0.053
    1UNL     C8   10  -0.053  -0.240   0.102
    1UNL     O3   11  -0.120  -0.158   0.004
    1UNL     C9   12  -0.176  -0.243  -0.101
    1UNL    C10   13  -0.248  -0.163  -0.216
    1UNL     O4   14  -0.159  -0.061  -0.262
    1UNL    C11   15  -0.204   0.065  -0.219
    1UNL     O5   16  -0.230   0.062  -0.082
    1UNL    C12   17  -0.316   0.176  -0.038
    1UNL    C13   18  -0.320   0.176   0.113
    1UNL     O6   19  -0.345   0.049   0.172
    1UNL    C14   20  -0.274   0.320  -0.088
    1UNL     O7   21  -0.260   0.416   0.016
    1UNL    C15   22  -0.128   0.314  -0.153
    1UNL     O8   23  -0.091   0.441  -0.217
    1UNL    C16   24  -0.107   0.193  -0.248
    1UNL     O9   25   0.026   0.146  -0.231
    1UNL    C17   26  -0.279  -0.344  -0.045
    1UNL    O10   27  -0.237  -0.481  -0.066
    1UNL    C18   28  -0.299  -0.329   0.108
    1UNL    O11   29  -0.376  -0.445   0.147
    1UNL    C19   30  -0.162  -0.329   0.180
    1UNL    O12   31  -0.096  -0.461   0.185
    1UNL    C20   32   0.180  -0.076   0.015
    1UNL    C21   33   0.065   0.017   0.059
    1UNL    O13   34   0.099   0.155   0.049
    1UNL    C22   35   0.051   0.226   0.156
    1UNL    O14   36  -0.035   0.196   0.239
    1UNL    C23   37   0.116   0.367   0.156
    1UNL    C24   38   0.253   0.365   0.183
    1UNL    C25   39   0.323   0.488   0.188
    1UNL    C26   40   0.251   0.604   0.168
    1UNL    C27   41   0.112   0.604   0.149
    1UNL    C28   42   0.051   0.488   0.139
    1UNL    C29   43   0.299  -0.066   0.118
    1UNL    O15   44   0.337   0.044   0.161
    1UNL    O16   45   0.358  -0.190   0.138
    1UNL     H1   46   0.319  -0.494   0.021
    1UNL     H2   47   0.222  -0.446   0.153
    1UNL     H3   48   0.388  -0.422   0.176
    1UNL     H4   49   0.394  -0.334  -0.159
    1UNL     H5   50   0.512  -0.268  -0.046
    1UNL     H6   51   0.411  -0.135  -0.246
    1UNL     H7   52   0.459  -0.008   0.002
    1UNL     H8   53   0.193   0.022  -0.172
    1UNL     H9   54   0.044  -0.163  -0.188
    1UNL    H10   55   0.176  -0.274  -0.221
    1UNL    H11   56  -0.008  -0.182   0.179
    1UNL    H12   57  -0.091  -0.302  -0.136
    1UNL    H13   58  -0.349  -0.117  -0.190
    1UNL    H14   59  -0.267  -0.233  -0.309
    1UNL    H15   60  -0.301   0.079  -0.264
    1UNL    H16   61  -0.424   0.153  -0.071
    1UNL    H17   62  -0.386   0.259   0.147
    1UNL    H18   63  -0.217   0.203   0.147
    1UNL    H19   64  -0.277  -0.017   0.137
    1UNL    H20   65  -0.337   0.362  -0.169
    1UNL    H21   66  -0.350   0.425   0.054
    1UNL    H22   67  -0.060   0.294  -0.075
    1UNL    H23   68  -0.113   0.532  -0.175
    1UNL    H24   69  -0.108   0.231  -0.346
    1UNL    H25   70   0.053   0.155  -0.129
    1UNL    H26   71  -0.385  -0.329  -0.089
    1UNL    H27   72  -0.291  -0.541  -0.010
    1UNL    H28   73  -0.359  -0.236   0.131
    1UNL    H29   74  -0.354  -0.459   0.243
    1UNL    H30   75  -0.170  -0.304   0.281
    1UNL    H31   76  -0.079  -0.478   0.092
    1UNL    H32   77  -0.030   0.011  -0.003
    1UNL    H33   78   0.056   0.002   0.162
    1UNL    H34   79   0.306   0.275   0.193
    1UNL    H35   80   0.431   0.486   0.184
    1UNL    H36   81   0.303   0.696   0.152
    1UNL    H37   82   0.069   0.693   0.131
    1UNL    H38   83  -0.054   0.482   0.113
   0.00000   0.00000   0.00000   0.00000   0.00000   0.00000   0.00000   0.00000   0.00000
Generated with MDTraj, t= 37.0
 83
    1UNL     C1    1   0.302  -0.424   0.072
    1UNL     C2    2   0.309  -0.278   0.036
    1UNL     C3    3   0.413  -0.254  -0.081
    1UNL     C4    4   0.380  -0.107  -0.138
    1UNL     O1    5   0.477  -0.008  -0.087
    1UNL     C5    6   0.237  -0.065  -0.117
    1UNL     C6    7   0.145  -0.182  -0.148
    1UNL     C7    8   0.164  -0.220   0.006
    1UNL     O2    9   0.061  -0.309   0.057
    1UNL     C8   10  -0.058  -0.251   0.097
    1UNL     O3   11  -0.126  -0.173  -0.002
    1UNL     C9   12  -0.182  -0.257  -0.100
    1UNL    C10   13  -0.248  -0.162  -0.207
    1UNL     O4   14  -0.151  -0.062  -0.237
    1UNL    C11   15  -0.198   0.070  -0.196
    1UNL     O5   16  -0.213   0.081  -0.051
    1UNL    C12   17  -0.311   0.183  -0.018
    1UNL    C13   18  -0.317   0.194   0.127
    1UNL     O6   19  -0.320   0.068   0.188
    1UNL    C14   20  -0.282   0.319  -0.097
    1UNL     O7   21  -0.284   0.450  -0.032
    1UNL    C15   22  -0.140   0.322  -0.184
    1UNL     O8   23  -0.153   0.432  -0.278
    1UNL    C16   24  -0.111   0.188  -0.247
    1UNL     O9   25   0.019   0.162  -0.229
    1UNL    C17   26  -0.276  -0.362  -0.046
    1UNL    O10   27  -0.210  -0.485  -0.076
    1UNL    C18   28  -0.300  -0.338   0.101
    1UNL    O11   29  -0.391  -0.440   0.154
    1UNL    C19   30  -0.161  -0.345   0.170
    1UNL    O12   31  -0.120  -0.482   0.192
    1UNL    C20   32   0.186  -0.067   0.035
    1UNL    C21   33   0.063   0.021   0.051
    1UNL    O13   34   0.103   0.150   0.022
    1UNL    C22   35   0.058   0.222   0.132
    1UNL    O14   36  -0.030   0.187   0.207
    1UNL    C23   37   0.119   0.353   0.153
    1UNL    C24   38   0.259   0.352   0.175
    1UNL    C25   39   0.338   0.467   0.180
    1UNL    C26   40   0.272   0.586   0.188
    1UNL    C27   41   0.134   0.594   0.180
    1UNL    C28   42   0.056   0.478   0.161
    1UNL    C29   43   0.298  -0.065   0.138
    1UNL    O15   44   0.341   0.036   0.191
    1UNL    O16   45   0.355  -0.195   0.146
    1UNL     H1   46   0.232  -0.466   0.012
    1UNL     H2   47   0.262  -0.435   0.176
    1UNL     H3   48   0.399  -0.473   0.081
    1UNL     H4   49   0.409  -0.320  -0.161
    1UNL     H5   50   0.514  -0.258  -0.041
    1UNL     H6   51   0.402  -0.117  -0.245
    1UNL     H7   52   0.463   0.002   0.009
    1UNL     H8   53   0.215   0.031  -0.163
    1UNL     H9   54   0.047  -0.148  -0.179
    1UNL    H10   55   0.181  -0.250  -0.218
    1UNL    H11   56  -0.028  -0.182   0.169
    1UNL    H12   57  -0.098  -0.306  -0.150
    1UNL    H13   58  -0.341  -0.113  -0.167
    1UNL    H14   59  -0.284  -0.215  -0.303
    1UNL    H15   60  -0.295   0.072  -0.241
    1UNL    H16   61  -0.408   0.133  -0.057
    1UNL    H17   62  -0.414   0.241   0.160
    1UNL    H18   63  -0.234   0.261   0.169
    1UNL    H19   64  -0.273   0.003   0.134
    1UNL    H20   65  -0.362   0.326  -0.172
    1UNL    H21   66  -0.367   0.457   0.018
    1UNL    H22   67  -0.070   0.344  -0.106
    1UNL    H23   68  -0.200   0.504  -0.238
    1UNL    H24   69  -0.133   0.197  -0.348
    1UNL    H25   70   0.044   0.159  -0.137
    1UNL    H26   71  -0.376  -0.357  -0.104
    1UNL    H27   72  -0.261  -0.567  -0.056
    1UNL    H28   73  -0.352  -0.238   0.118
    1UNL    H29   74  -0.334  -0.493   0.212
    1UNL    H30   75  -0.176  -0.306   0.265
    1UNL    H31   76  -0.092  -0.504   0.096
    1UNL    H32   77  -0.012  -0.012  -0.029
    1UNL    H33   78   0.028   0.008   0.149
    1UNL    H34   79   0.310   0.253   0.176
    1UNL    H35   80   0.446   0.472   0.177
    1UNL    H36   81   0.318   0.680   0.197
    1UNL    H37   82   0.074   0.690   0.187
    1UNL    H38   83  -0.049   0.488   0.155
   0.00000   0.00000   0.00000   0.00000   0.00000   0.00000   0.00000   0.00000   0.00000
Generated with MDTraj, t= 38.0
 83
    1UNL     C1    1   0.303  -0.439   0.062
    1UNL     C2    2   0.305  -0.287   0.037
    1UNL     C3    3   0.406  -0.254  -0.076
    1UNL     C4    4   0.376  -0.103  -0.128
    1UNL     O1    5   0.461  -0.017  -0.060
    1UNL     C5    6   0.230  -0.066  -0.108
    1UNL     C6    7   0.140  -0.189  -0.150
    1UNL     C7    8   0.152  -0.237  -0.004
    1UNL     O2    9   0.053  -0.320   0.058
    1UNL     C8   10  -0.054  -0.255   0.118
    1UNL     O3   11  -0.126  -0.170   0.023
    1UNL     C9   12  -0.177  -0.240  -0.087
    1UNL    C10   13  -0.235  -0.154  -0.199
    1UNL     O4   14  -0.145  -0.057  -0.247
    1UNL    C11   15  -0.208   0.070  -0.220
    1UNL     O5   16  -0.225   0.080  -0.075
    1UNL    C12   17  -0.313   0.194  -0.033
    1UNL    C13   18  -0.292   0.208   0.110
    1UNL     O6   19  -0.297   0.087   0.178
    1UNL    C14   20  -0.303   0.320  -0.119
    1UNL     O7   21  -0.326   0.438  -0.051
    1UNL    C15   22  -0.170   0.327  -0.204
    1UNL     O8   23  -0.186   0.442  -0.287
    1UNL    C16   24  -0.137   0.193  -0.273
    1UNL     O9   25   0.004   0.176  -0.267
    1UNL    C17   26  -0.272  -0.349  -0.037
    1UNL    O10   27  -0.222  -0.472  -0.093
    1UNL    C18   28  -0.283  -0.354   0.121
    1UNL    O11   29  -0.356  -0.476   0.156
    1UNL    C19   30  -0.146  -0.362   0.182
    1UNL    O12   31  -0.096  -0.492   0.167
    1UNL    C20   32   0.173  -0.089   0.040
    1UNL    C21   33   0.058   0.018   0.069
    1UNL    O13   34   0.103   0.150   0.043
    1UNL    C22   35   0.070   0.238   0.141
    1UNL    O14   36  -0.024   0.223   0.215
    1UNL    C23   37   0.144   0.365   0.155
    1UNL    C24   38   0.280   0.357   0.164
    1UNL    C25   39   0.352   0.471   0.189
    1UNL    C26   40   0.294   0.599   0.205
    1UNL    C27   41   0.161   0.602   0.205
    1UNL    C28   42   0.081   0.485   0.174
    1UNL    C29   43   0.288  -0.084   0.147
    1UNL    O15   44   0.323   0.021   0.197
    1UNL    O16   45   0.347  -0.207   0.156
    1UNL     H1   46   0.300  -0.501  -0.027
    1UNL     H2   47   0.219  -0.473   0.120
    1UNL     H3   48   0.385  -0.460   0.129
    1UNL     H4   49   0.390  -0.321  -0.155
    1UNL     H5   50   0.511  -0.255  -0.050
    1UNL     H6   51   0.401  -0.092  -0.236
    1UNL     H7   52   0.432  -0.001   0.034
    1UNL     H8   53   0.202   0.027  -0.156
    1UNL     H9   54   0.039  -0.167  -0.180
    1UNL    H10   55   0.181  -0.254  -0.217
    1UNL    H11   56  -0.009  -0.192   0.189
    1UNL    H12   57  -0.090  -0.296  -0.124
    1UNL    H13   58  -0.330  -0.113  -0.165
    1UNL    H14   59  -0.262  -0.220  -0.288
    1UNL    H15   60  -0.303   0.060  -0.268
    1UNL    H16   61  -0.418   0.155  -0.051
    1UNL    H17   62  -0.356   0.281   0.169
    1UNL    H18   63  -0.182   0.234   0.133
    1UNL    H19   64  -0.244   0.022   0.120
    1UNL    H20   65  -0.377   0.321  -0.199
    1UNL    H21   66  -0.420   0.446  -0.022
    1UNL    H22   67  -0.086   0.354  -0.140
    1UNL    H23   68  -0.221   0.519  -0.246
    1UNL    H24   69  -0.155   0.211  -0.372
    1UNL    H25   70   0.030   0.169  -0.167
    1UNL    H26   71  -0.379  -0.333  -0.074
    1UNL    H27   72  -0.242  -0.550  -0.040
    1UNL    H28   73  -0.346  -0.265   0.153
    1UNL    H29   74  -0.301  -0.532   0.214
    1UNL    H30   75  -0.147  -0.352   0.284
    1UNL    H31   76  -0.054  -0.488   0.074
    1UNL    H32   77  -0.024  -0.005  -0.003
    1UNL    H33   78   0.032   0.001   0.171
    1UNL    H34   79   0.331   0.265   0.169
    1UNL    H35   80   0.457   0.467   0.210
    1UNL    H36   81   0.352   0.692   0.238
    1UNL    H37   82   0.106   0.684   0.234
    1UNL    H38   83  -0.028   0.491   0.198
   0.00000   0.00000   0.00000   0.00000   0.00000   0.00000   0.00000   0.00000   0.00000
Generated with MDTraj, t= 39.0
 83
    1UNL     C1    1   0.280  -0.432   0.065
    1UNL     C2    2   0.297  -0.277   0.032
    1UNL     C3    3   0.403  -0.246  -0.073
    1UNL     C4    4   0.403  -0.098  -0.121
    1UNL     O1    5   0.490  -0.012  -0.040
    1UNL     C5    6   0.254  -0.055  -0.116
    1UNL     C6    7   0.146  -0.164  -0.160
    1UNL     C7    8   0.154  -0.216  -0.014
    1UNL     O2    9   0.048  -0.295   0.035
    1UNL     C8   10  -0.060  -0.240   0.115
    1UNL     O3   11  -0.150  -0.164   0.029
    1UNL     C9   12  -0.193  -0.246  -0.079
    1UNL    C10   13  -0.251  -0.162  -0.188
    1UNL     O4   14  -0.159  -0.066  -0.235
    1UNL    C11   15  -0.214   0.065  -0.219
    1UNL     O5   16  -0.245   0.073  -0.081
    1UNL    C12   17  -0.332   0.183  -0.050
    1UNL    C13   18  -0.302   0.214   0.100
    1UNL     O6   19  -0.302   0.092   0.172
    1UNL    C14   20  -0.328   0.309  -0.147
    1UNL     O7   21  -0.376   0.419  -0.076
    1UNL    C15   22  -0.173   0.328  -0.191
    1UNL     O8   23  -0.175   0.426  -0.293
    1UNL    C16   24  -0.121   0.187  -0.251
    1UNL     O9   25   0.023   0.172  -0.226
    1UNL    C17   26  -0.293  -0.358  -0.035
    1UNL    O10   27  -0.270  -0.477  -0.105
    1UNL    C18   28  -0.285  -0.383   0.118
    1UNL    O11   29  -0.328  -0.511   0.154
    1UNL    C19   30  -0.142  -0.359   0.179
    1UNL    O12   31  -0.064  -0.479   0.173
    1UNL    C20   32   0.178  -0.070   0.029
    1UNL    C21   33   0.059   0.029   0.063
    1UNL    O13   34   0.112   0.154   0.047
    1UNL    C22   35   0.087   0.237   0.149
    1UNL    O14   36  -0.006   0.223   0.223
    1UNL    C23   37   0.162   0.366   0.161
    1UNL    C24   38   0.299   0.354   0.157
    1UNL    C25   39   0.375   0.464   0.190
    1UNL    C26   40   0.319   0.591   0.206
    1UNL    C27   41   0.185   0.599   0.206
    1UNL    C28   42   0.104   0.485   0.184
    1UNL    C29   43   0.282  -0.076   0.143
    1UNL    O15   44   0.307   0.018   0.212
    1UNL    O16   45   0.333  -0.204   0.151
    1UNL     H1   46   0.189  -0.471   0.008
    1UNL     H2   47   0.256  -0.450   0.166
    1UNL     H3   48   0.366  -0.496   0.053
    1UNL     H4   49   0.399  -0.316  -0.154
    1UNL     H5   50   0.496  -0.254  -0.022
    1UNL     H6   51   0.436  -0.079  -0.228
    1UNL     H7   52   0.447   0.006   0.047
    1UNL     H8   53   0.235   0.033  -0.175
    1UNL     H9   54   0.048  -0.133  -0.189
    1UNL    H10   55   0.187  -0.229  -0.231
    1UNL    H11   56  -0.006  -0.178   0.182
    1UNL    H12   57  -0.099  -0.293  -0.115
    1UNL    H13   58  -0.335  -0.110  -0.150
    1UNL    H14   59  -0.290  -0.224  -0.272
    1UNL    H15   60  -0.302   0.061  -0.280
    1UNL    H16   61  -0.436   0.145  -0.048
    1UNL    H17   62  -0.393   0.262   0.146
    1UNL    H18   63  -0.206   0.268   0.135
    1UNL    H19   64  -0.261   0.023   0.109
    1UNL    H20   65  -0.394   0.301  -0.233
    1UNL    H21   66  -0.475   0.414  -0.068
    1UNL    H22   67  -0.125   0.362  -0.096
    1UNL    H23   68  -0.202   0.518  -0.256
    1UNL    H24   69  -0.112   0.208  -0.350
    1UNL    H25   70   0.043   0.178  -0.134
    1UNL    H26   71  -0.399  -0.327  -0.053
    1UNL    H27   72  -0.320  -0.553  -0.065
    1UNL    H28   73  -0.358  -0.306   0.156
    1UNL    H29   74  -0.245  -0.561   0.176
    1UNL    H30   75  -0.149  -0.343   0.280
    1UNL    H31   76  -0.020  -0.476   0.087
    1UNL    H32   77  -0.024   0.010  -0.010
    1UNL    H33   78   0.032   0.015   0.168
    1UNL    H34   79   0.350   0.257   0.140
    1UNL    H35   80   0.482   0.450   0.202
    1UNL    H36   81   0.391   0.666   0.212
    1UNL    H37   82   0.137   0.696   0.244
    1UNL    H38   83  -0.000   0.485   0.185
   0.00000   0.00000   0.00000   0.00000   0.00000   0.00000   0.00000   0.00000   0.00000
Generated with MDTraj, t= 40.0
 83
    1UNL     C1    1   0.277  -0.419   0.071
    1UNL     C2    2   0.286  -0.273   0.029
    1UNL     C3    3   0.401  -0.230  -0.066
    1UNL     C4    4   0.398  -0.086  -0.114
    1UNL     O1    5   0.486   0.001  -0.042
    1UNL     C5    6   0.252  -0.032  -0.103
    1UNL     C6    7   0.149  -0.141  -0.164
    1UNL     C7    8   0.153  -0.210  -0.025
    1UNL     O2    9   0.046  -0.294   0.020
    1UNL     C8   10  -0.052  -0.239   0.094
    1UNL     O3   11  -0.144  -0.158   0.016
    1UNL     C9   12  -0.191  -0.247  -0.088
    1UNL    C10   13  -0.253  -0.180  -0.208
    1UNL     O4   14  -0.173  -0.073  -0.255
    1UNL    C11   15  -0.216   0.052  -0.206
    1UNL     O5   16  -0.242   0.068  -0.067
    1UNL    C12   17  -0.338   0.176  -0.039
    1UNL    C13   18  -0.319   0.213   0.107
    1UNL     O6   19  -0.347   0.103   0.198
    1UNL    C14   20  -0.318   0.296  -0.135
    1UNL     O7   21  -0.379   0.412  -0.102
    1UNL    C15   22  -0.168   0.302  -0.188
    1UNL     O8   23  -0.146   0.420  -0.263
    1UNL    C16   24  -0.125   0.166  -0.261
    1UNL     O9   25   0.013   0.144  -0.241
    1UNL    C17   26  -0.296  -0.357  -0.034
    1UNL    O10   27  -0.280  -0.482  -0.100
    1UNL    C18   28  -0.274  -0.377   0.123
    1UNL    O11   29  -0.323  -0.507   0.154
    1UNL    C19   30  -0.123  -0.352   0.175
    1UNL    O12   31  -0.057  -0.471   0.152
    1UNL    C20   32   0.179  -0.060   0.038
    1UNL    C21   33   0.061   0.042   0.067
    1UNL    O13   34   0.104   0.169   0.043
    1UNL    C22   35   0.069   0.250   0.154
    1UNL    O14   36  -0.028   0.234   0.224
    1UNL    C23   37   0.158   0.364   0.179
    1UNL    C24   38   0.295   0.343   0.167
    1UNL    C25   39   0.392   0.440   0.183
    1UNL    C26   40   0.353   0.567   0.186
    1UNL    C27   41   0.213   0.598   0.202
    1UNL    C28   42   0.120   0.496   0.202
    1UNL    C29   43   0.282  -0.073   0.152
    1UNL    O15   44   0.332   0.019   0.211
    1UNL    O16   45   0.313  -0.210   0.157
    1UNL     H1   46   0.313  -0.481  -0.016
    1UNL     H2   47   0.181  -0.455   0.104
    1UNL     H3   48   0.341  -0.433   0.159
    1UNL     H4   49   0.398  -0.295  -0.153
    1UNL     H5   50   0.494  -0.249  -0.023
    1UNL     H6   51   0.431  -0.071  -0.221
    1UNL     H7   52   0.445   0.017   0.046
    1UNL     H8   53   0.236   0.067  -0.137
    1UNL     H9   54   0.050  -0.116  -0.184
    1UNL    H10   55   0.203  -0.190  -0.243
    1UNL    H11   56  -0.009  -0.169   0.162
    1UNL    H12   57  -0.095  -0.296  -0.119
    1UNL    H13   58  -0.343  -0.138  -0.179
    1UNL    H14   59  -0.281  -0.240  -0.294
    1UNL    H15   60  -0.314   0.052  -0.255
    1UNL    H16   61  -0.435   0.131  -0.055
    1UNL    H17   62  -0.382   0.300   0.136
    1UNL    H18   63  -0.210   0.240   0.106
    1UNL    H19   64  -0.293   0.027   0.174
    1UNL    H20   65  -0.373   0.273  -0.228
    1UNL    H21   66  -0.477   0.398  -0.112
    1UNL    H22   67  -0.100   0.311  -0.097
    1UNL    H23   68  -0.190   0.497  -0.221
    1UNL    H24   69  -0.121   0.184  -0.361
    1UNL    H25   70   0.045   0.154  -0.145
    1UNL    H26   71  -0.397  -0.323  -0.056
    1UNL    H27   72  -0.311  -0.558  -0.046
    1UNL    H28   73  -0.345  -0.311   0.173
    1UNL    H29   74  -0.254  -0.545   0.213
    1UNL    H30   75  -0.130  -0.335   0.277
    1UNL    H31   76  -0.039  -0.477   0.055
    1UNL    H32   77  -0.032   0.030   0.006
    1UNL    H33   78   0.043   0.029   0.178
    1UNL    H34   79   0.327   0.244   0.151
    1UNL    H35   80   0.492   0.404   0.166
    1UNL    H36   81   0.431   0.644   0.180
    1UNL    H37   82   0.185   0.697   0.205
    1UNL    H38   83   0.012   0.511   0.214
   0.00000   0.00000   0.00000   0.00000   0.00000   0.00000   0.00000   0.00000   0.00000
Generated with MDTraj, t= 41.0
 83
    1UNL     C1    1   0.327  -0.411   0.057
    1UNL     C2    2   0.309  -0.264   0.030
    1UNL     C3    3   0.414  -0.208  -0.080
    1UNL     C4    4   0.384  -0.061  -0.109
    1UNL     O1    5   0.473   0.025  -0.033
    1UNL     C5    6   0.231  -0.025  -0.105
    1UNL     C6    7   0.152  -0.147  -0.154
    1UNL     C7    8   0.160  -0.213  -0.011
    1UNL     O2    9   0.058  -0.301   0.030
    1UNL     C8   10  -0.048  -0.254   0.108
    1UNL     O3   11  -0.142  -0.177   0.020
    1UNL     C9   12  -0.192  -0.257  -0.082
    1UNL    C10   13  -0.259  -0.179  -0.194
    1UNL     O4   14  -0.178  -0.075  -0.254
    1UNL    C11   15  -0.225   0.059  -0.226
    1UNL     O5   16  -0.273   0.069  -0.087
    1UNL    C12   17  -0.356   0.181  -0.051
    1UNL    C13   18  -0.334   0.204   0.101
    1UNL     O6   19  -0.342   0.075   0.159
    1UNL    C14   20  -0.314   0.312  -0.132
    1UNL     O7   21  -0.324   0.436  -0.060
    1UNL    C15   22  -0.161   0.310  -0.181
    1UNL     O8   23  -0.128   0.429  -0.256
    1UNL    C16   24  -0.121   0.176  -0.251
    1UNL     O9   25   0.011   0.142  -0.235
    1UNL    C17   26  -0.290  -0.369  -0.025
    1UNL    O10   27  -0.252  -0.494  -0.070
    1UNL    C18   28  -0.288  -0.376   0.130
    1UNL    O11   29  -0.353  -0.492   0.172
    1UNL    C19   30  -0.131  -0.374   0.178
    1UNL    O12   31  -0.077  -0.494   0.132
    1UNL    C20   32   0.171  -0.061   0.037
    1UNL    C21   33   0.046   0.033   0.071
    1UNL    O13   34   0.080   0.165   0.032
    1UNL    C22   35   0.056   0.259   0.135
    1UNL    O14   36  -0.042   0.256   0.207
    1UNL    C23   37   0.165   0.359   0.152
    1UNL    C24   38   0.292   0.324   0.164
    1UNL    C25   39   0.391   0.413   0.188
    1UNL    C26   40   0.368   0.546   0.205
    1UNL    C27   41   0.230   0.592   0.191
    1UNL    C28   42   0.130   0.496   0.177
    1UNL    C29   43   0.272  -0.070   0.148
    1UNL    O15   44   0.306   0.025   0.216
    1UNL    O16   45   0.339  -0.193   0.152
    1UNL     H1   46   0.264  -0.469  -0.006
    1UNL     H2   47   0.299  -0.425   0.167
    1UNL     H3   48   0.436  -0.442   0.053
    1UNL     H4   49   0.422  -0.267  -0.172
    1UNL     H5   50   0.513  -0.217  -0.048
    1UNL     H6   51   0.412  -0.043  -0.215
    1UNL     H7   52   0.445   0.029   0.062
    1UNL     H8   53   0.202   0.068  -0.148
    1UNL     H9   54   0.061  -0.125  -0.200
    1UNL    H10   55   0.204  -0.219  -0.220
    1UNL    H11   56  -0.008  -0.183   0.178
    1UNL    H12   57  -0.101  -0.312  -0.116
    1UNL    H13   58  -0.350  -0.137  -0.172
    1UNL    H14   59  -0.285  -0.247  -0.271
    1UNL    H15   60  -0.312   0.056  -0.298
    1UNL    H16   61  -0.454   0.150  -0.078
    1UNL    H17   62  -0.415   0.271   0.128
    1UNL    H18   63  -0.239   0.251   0.125
    1UNL    H19   64  -0.270   0.012   0.126
    1UNL    H20   65  -0.378   0.333  -0.219
    1UNL    H21   66  -0.414   0.472  -0.070
    1UNL    H22   67  -0.096   0.321  -0.086
    1UNL    H23   68  -0.157   0.510  -0.213
    1UNL    H24   69  -0.118   0.196  -0.350
    1UNL    H25   70   0.028   0.150  -0.141
    1UNL    H26   71  -0.391  -0.352  -0.055
    1UNL    H27   72  -0.299  -0.567  -0.023
    1UNL    H28   73  -0.344  -0.292   0.169
    1UNL    H29   74  -0.278  -0.556   0.187
    1UNL    H30   75  -0.120  -0.374   0.283
    1UNL    H31   76  -0.082  -0.500   0.032
    1UNL    H32   77  -0.046   0.005   0.018
    1UNL    H33   78   0.030   0.037   0.184
    1UNL    H34   79   0.317   0.217   0.157
    1UNL    H35   80   0.495   0.380   0.195
    1UNL    H36   81   0.441   0.623   0.223
    1UNL    H37   82   0.216   0.699   0.204
    1UNL    H38   83   0.027   0.521   0.191
   0.00000   0.00000   0.00000   0.00000   0.00000   0.00000   0.00000   0.00000   0.00000
Generated with MDTraj, t= 42.0
 83
    1UNL     C1    1   0.328  -0.406   0.053
    1UNL     C2    2   0.321  -0.258   0.029
    1UNL     C3    3   0.417  -0.202  -0.081
    1UNL     C4    4   0.369  -0.055  -0.121
    1UNL     O1    5   0.452   0.044  -0.055
    1UNL     C5    6   0.213  -0.037  -0.103
    1UNL     C6    7   0.139  -0.163  -0.145
    1UNL     C7    8   0.164  -0.221  -0.001
    1UNL     O2    9   0.067  -0.315   0.049
    1UNL     C8   10  -0.045  -0.262   0.107
    1UNL     O3   11  -0.118  -0.174   0.013
    1UNL     C9   12  -0.177  -0.249  -0.089
    1UNL    C10   13  -0.262  -0.167  -0.184
    1UNL     O4   14  -0.184  -0.069  -0.250
    1UNL    C11   15  -0.235   0.063  -0.226
    1UNL     O5   16  -0.258   0.076  -0.078
    1UNL    C12   17  -0.335   0.188  -0.047
    1UNL    C13   18  -0.339   0.188   0.114
    1UNL     O6   19  -0.360   0.055   0.154
    1UNL    C14   20  -0.291   0.320  -0.121
    1UNL     O7   21  -0.286   0.436  -0.036
    1UNL    C15   22  -0.150   0.304  -0.177
    1UNL     O8   23  -0.114   0.424  -0.240
    1UNL    C16   24  -0.131   0.176  -0.265
    1UNL     O9   25   0.002   0.140  -0.253
    1UNL    C17   26  -0.272  -0.357  -0.029
    1UNL    O10   27  -0.245  -0.488  -0.084
    1UNL    C18   28  -0.273  -0.366   0.125
    1UNL    O11   29  -0.360  -0.469   0.167
    1UNL    C19   30  -0.129  -0.374   0.174
    1UNL    O12   31  -0.071  -0.490   0.152
    1UNL    C20   32   0.165  -0.066   0.046
    1UNL    C21   33   0.047   0.028   0.076
    1UNL    O13   34   0.086   0.160   0.029
    1UNL    C22   35   0.048   0.255   0.119
    1UNL    O14   36  -0.062   0.259   0.170
    1UNL    C23   37   0.159   0.354   0.148
    1UNL    C24   38   0.285   0.308   0.181
    1UNL    C25   39   0.382   0.404   0.204
    1UNL    C26   40   0.354   0.540   0.200
    1UNL    C27   41   0.228   0.584   0.170
    1UNL    C28   42   0.127   0.492   0.146
    1UNL    C29   43   0.268  -0.069   0.154
    1UNL    O15   44   0.277   0.020   0.237
    1UNL    O16   45   0.344  -0.180   0.150
    1UNL     H1   46   0.337  -0.455  -0.040
    1UNL     H2   47   0.237  -0.434   0.118
    1UNL     H3   48   0.416  -0.434   0.120
    1UNL     H4   49   0.406  -0.268  -0.166
    1UNL     H5   50   0.520  -0.212  -0.060
    1UNL     H6   51   0.390  -0.046  -0.227
    1UNL     H7   52   0.431   0.049   0.040
    1UNL     H8   53   0.181   0.062  -0.132
    1UNL     H9   54   0.044  -0.148  -0.189
    1UNL    H10   55   0.191  -0.220  -0.225
    1UNL    H11   56  -0.001  -0.197   0.183
    1UNL    H12   57  -0.093  -0.301  -0.138
    1UNL    H13   58  -0.336  -0.121  -0.128
    1UNL    H14   59  -0.322  -0.216  -0.259
    1UNL    H15   60  -0.328   0.063  -0.290
    1UNL    H16   61  -0.427   0.156  -0.090
    1UNL    H17   62  -0.414   0.247   0.160
    1UNL    H18   63  -0.247   0.218   0.163
    1UNL    H19   64  -0.286   0.001   0.127
    1UNL    H20   65  -0.366   0.340  -0.201
    1UNL    H21   66  -0.377   0.450  -0.002
    1UNL    H22   67  -0.084   0.301  -0.082
    1UNL    H23   68  -0.157   0.505  -0.195
    1UNL    H24   69  -0.147   0.206  -0.360
    1UNL    H25   70   0.032   0.144  -0.158
    1UNL    H26   71  -0.369  -0.327  -0.056
    1UNL    H27   72  -0.313  -0.557  -0.065
    1UNL    H28   73  -0.313  -0.274   0.158
    1UNL    H29   74  -0.334  -0.501   0.254
    1UNL    H30   75  -0.119  -0.367   0.281
    1UNL    H31   76  -0.090  -0.521   0.061
    1UNL    H32   77  -0.037  -0.009   0.021
    1UNL    H33   78   0.026   0.027   0.190
    1UNL    H34   79   0.289   0.203   0.201
    1UNL    H35   80   0.481   0.369   0.220
    1UNL    H36   81   0.436   0.605   0.218
    1UNL    H37   82   0.193   0.696   0.174
    1UNL    H38   83   0.021   0.522   0.146
   0.00000   0.00000   0.00000   0.00000   0.00000   0.00000   0.00000   0.00000   0.00000
Generated with MDTraj, t= 43.0
 83
    1UNL     C1    1   0.299  -0.419   0.049
    1UNL     C2    2   0.303  -0.263   0.032
    1UNL     C3    3   0.416  -0.223  -0.071
    1UNL     C4    4   0.393  -0.076  -0.111
    1UNL     O1    5   0.472   0.019  -0.044
    1UNL     C5    6   0.244  -0.049  -0.111
    1UNL     C6    7   0.159  -0.175  -0.159
    1UNL     C7    8   0.157  -0.215  -0.010
    1UNL     O2    9   0.045  -0.308   0.026
    1UNL     C8   10  -0.055  -0.243   0.089
    1UNL     O3   11  -0.137  -0.169  -0.003
    1UNL     C9   12  -0.191  -0.260  -0.090
    1UNL    C10   13  -0.241  -0.169  -0.202
    1UNL     O4   14  -0.152  -0.062  -0.238
    1UNL    C11   15  -0.210   0.058  -0.198
    1UNL     O5   16  -0.243   0.069  -0.058
    1UNL    C12   17  -0.327   0.179  -0.034
    1UNL    C13   18  -0.334   0.185   0.121
    1UNL     O6   19  -0.384   0.066   0.178
    1UNL    C14   20  -0.288   0.313  -0.096
    1UNL     O7   21  -0.297   0.426  -0.017
    1UNL    C15   22  -0.149   0.307  -0.160
    1UNL     O8   23  -0.115   0.426  -0.226
    1UNL    C16   24  -0.131   0.181  -0.252
    1UNL     O9   25   0.010   0.152  -0.254
    1UNL    C17   26  -0.285  -0.372  -0.034
    1UNL    O10   27  -0.231  -0.495  -0.078
    1UNL    C18   28  -0.287  -0.360   0.118
    1UNL    O11   29  -0.359  -0.472   0.175
    1UNL    C19   30  -0.138  -0.352   0.171
    1UNL    O12   31  -0.072  -0.475   0.164
    1UNL    C20   32   0.177  -0.061   0.024
    1UNL    C21   33   0.053   0.027   0.054
    1UNL    O13   34   0.090   0.164   0.023
    1UNL    C22   35   0.048   0.257   0.117
    1UNL    O14   36  -0.059   0.246   0.174
    1UNL    C23   37   0.141   0.370   0.140
    1UNL    C24   38   0.261   0.325   0.201
    1UNL    C25   39   0.366   0.414   0.224
    1UNL    C26   40   0.334   0.554   0.197
    1UNL    C27   41   0.215   0.592   0.144
    1UNL    C28   42   0.117   0.498   0.111
    1UNL    C29   43   0.278  -0.067   0.138
    1UNL    O15   44   0.295   0.032   0.207
    1UNL    O16   45   0.335  -0.187   0.149
    1UNL     H1   46   0.273  -0.468  -0.048
    1UNL     H2   47   0.250  -0.449   0.149
    1UNL     H3   48   0.404  -0.450   0.072
    1UNL     H4   49   0.414  -0.288  -0.155
    1UNL     H5   50   0.515  -0.237  -0.030
    1UNL     H6   51   0.423  -0.068  -0.213
    1UNL     H7   52   0.431   0.045   0.042
    1UNL     H8   53   0.212   0.046  -0.152
    1UNL     H9   54   0.060  -0.151  -0.200
    1UNL    H10   55   0.213  -0.239  -0.229
    1UNL    H11   56  -0.004  -0.174   0.157
    1UNL    H12   57  -0.103  -0.314  -0.126
    1UNL    H13   58  -0.337  -0.128  -0.183
    1UNL    H14   59  -0.269  -0.228  -0.292
    1UNL    H15   60  -0.303   0.056  -0.262
    1UNL    H16   61  -0.421   0.149  -0.080
    1UNL    H17   62  -0.390   0.260   0.167
    1UNL    H18   63  -0.234   0.192   0.166
    1UNL    H19   64  -0.364  -0.010   0.114
    1UNL    H20   65  -0.349   0.326  -0.188
    1UNL    H21   66  -0.385   0.453   0.021
    1UNL    H22   67  -0.070   0.296  -0.076
    1UNL    H23   68  -0.159   0.501  -0.178
    1UNL    H24   69  -0.156   0.204  -0.350
    1UNL    H25   70   0.040   0.170  -0.162
    1UNL    H26   71  -0.383  -0.359  -0.068
    1UNL    H27   72  -0.281  -0.571  -0.048
    1UNL    H28   73  -0.345  -0.274   0.133
    1UNL    H29   74  -0.295  -0.542   0.206
    1UNL    H30   75  -0.141  -0.329   0.278
    1UNL    H31   76  -0.021  -0.479   0.077
    1UNL    H32   77  -0.032  -0.001  -0.003
    1UNL    H33   78   0.022   0.022   0.167
    1UNL    H34   79   0.276   0.220   0.208
    1UNL    H35   80   0.470   0.381   0.243
    1UNL    H36   81   0.421   0.618   0.207
    1UNL    H37   82   0.206   0.689   0.123
    1UNL    H38   83   0.027   0.537   0.072
   0.00000   0.00000   0.00000   0.00000   0.00000   0.00000   0.00000   0.00000   0.00000
Generated with MDTraj, t= 44.0
 83
    1UNL     C1    1   0.270  -0.426   0.075
    1UNL     C2    2   0.293  -0.278   0.042
    1UNL     C3    3   0.406  -0.260  -0.060
    1UNL     C4    4   0.401  -0.114  -0.122
    1UNL     O1    5   0.493  -0.025  -0.058
    1UNL     C5    6   0.255  -0.060  -0.116
    1UNL     C6    7   0.159  -0.179  -0.161
    1UNL     C7    8   0.159  -0.225  -0.016
    1UNL     O2    9   0.040  -0.310   0.024
    1UNL     C8   10  -0.055  -0.242   0.100
    1UNL     O3   11  -0.134  -0.156   0.018
    1UNL     C9   12  -0.180  -0.234  -0.089
    1UNL    C10   13  -0.247  -0.151  -0.203
    1UNL     O4   14  -0.165  -0.049  -0.251
    1UNL    C11   15  -0.217   0.069  -0.207
    1UNL     O5   16  -0.247   0.065  -0.074
    1UNL    C12   17  -0.341   0.166  -0.040
    1UNL    C13   18  -0.339   0.176   0.119
    1UNL     O6   19  -0.352   0.039   0.165
    1UNL    C14   20  -0.312   0.310  -0.099
    1UNL     O7   21  -0.334   0.418  -0.012
    1UNL    C15   22  -0.154   0.317  -0.138
    1UNL     O8   23  -0.116   0.439  -0.200
    1UNL    C16   24  -0.128   0.197  -0.243
    1UNL     O9   25   0.006   0.154  -0.251
    1UNL    C17   26  -0.280  -0.350  -0.040
    1UNL    O10   27  -0.215  -0.470  -0.082
    1UNL    C18   28  -0.291  -0.358   0.117
    1UNL    O11   29  -0.345  -0.488   0.160
    1UNL    C19   30  -0.143  -0.349   0.179
    1UNL    O12   31  -0.080  -0.470   0.160
    1UNL    C20   32   0.181  -0.067   0.022
    1UNL    C21   33   0.067   0.033   0.032
    1UNL    O13   34   0.118   0.170   0.016
    1UNL    C22   35   0.075   0.247   0.122
    1UNL    O14   36  -0.027   0.226   0.186
    1UNL    C23   37   0.159   0.365   0.141
    1UNL    C24   38   0.279   0.358   0.212
    1UNL    C25   39   0.358   0.469   0.234
    1UNL    C26   40   0.304   0.593   0.189
    1UNL    C27   41   0.184   0.601   0.126
    1UNL    C28   42   0.115   0.488   0.095
    1UNL    C29   43   0.281  -0.067   0.138
    1UNL    O15   44   0.302   0.031   0.207
    1UNL    O16   45   0.322  -0.195   0.158
    1UNL     H1   46   0.240  -0.472  -0.030
    1UNL     H2   47   0.194  -0.425   0.158
    1UNL     H3   48   0.347  -0.492   0.120
    1UNL     H4   49   0.399  -0.336  -0.131
    1UNL     H5   50   0.502  -0.267  -0.008
    1UNL     H6   51   0.437  -0.115  -0.223
    1UNL     H7   52   0.464  -0.000   0.033
    1UNL     H8   53   0.231   0.023  -0.178
    1UNL     H9   54   0.053  -0.148  -0.189
    1UNL    H10   55   0.208  -0.244  -0.231
    1UNL    H11   56   0.007  -0.185   0.172
    1UNL    H12   57  -0.095  -0.287  -0.127
    1UNL    H13   58  -0.343  -0.113  -0.168
    1UNL    H14   59  -0.287  -0.209  -0.294
    1UNL    H15   60  -0.312   0.077  -0.263
    1UNL    H16   61  -0.443   0.133  -0.068
    1UNL    H17   62  -0.419   0.231   0.155
    1UNL    H18   63  -0.248   0.213   0.166
    1UNL    H19   64  -0.295  -0.022   0.115
    1UNL    H20   65  -0.382   0.315  -0.183
    1UNL    H21   66  -0.428   0.428   0.017
    1UNL    H22   67  -0.099   0.300  -0.036
    1UNL    H23   68  -0.155   0.508  -0.147
    1UNL    H24   69  -0.154   0.242  -0.336
    1UNL    H25   70   0.045   0.154  -0.166
    1UNL    H26   71  -0.376  -0.343  -0.083
    1UNL    H27   72  -0.251  -0.547  -0.030
    1UNL    H28   73  -0.340  -0.274   0.155
    1UNL    H29   74  -0.268  -0.549   0.169
    1UNL    H30   75  -0.149  -0.323   0.287
    1UNL    H31   76  -0.064  -0.470   0.062
    1UNL    H32   77  -0.015   0.016  -0.032
    1UNL    H33   78   0.019   0.025   0.138
    1UNL    H34   79   0.310   0.256   0.240
    1UNL    H35   80   0.463   0.454   0.255
    1UNL    H36   81   0.356   0.685   0.195
    1UNL    H37   82   0.139   0.699   0.089
    1UNL    H38   83   0.025   0.500   0.034
   0.00000   0.00000   0.00000   0.00000   0.00000   0.00000   0.00000   0.00000   0.00000
Generated with MDTraj, t= 45.0
 83
    1UNL     C1    1   0.278  -0.436   0.103
    1UNL     C2    2   0.299  -0.299   0.052
    1UNL     C3    3   0.409  -0.283  -0.058
    1UNL     C4    4   0.404  -0.136  -0.117
    1UNL     O1    5   0.497  -0.055  -0.044
    1UNL     C5    6   0.258  -0.075  -0.118
    1UNL     C6    7   0.160  -0.192  -0.148
    1UNL     C7    8   0.164  -0.235  -0.005
    1UNL     O2    9   0.046  -0.313   0.035
    1UNL     C8   10  -0.050  -0.235   0.102
    1UNL     O3   11  -0.124  -0.154   0.008
    1UNL     C9   12  -0.174  -0.232  -0.103
    1UNL    C10   13  -0.246  -0.152  -0.222
    1UNL     O4   14  -0.172  -0.036  -0.270
    1UNL    C11   15  -0.234   0.084  -0.221
    1UNL     O5   16  -0.258   0.071  -0.085
    1UNL    C12   17  -0.336   0.175  -0.025
    1UNL    C13   18  -0.310   0.172   0.126
    1UNL     O6   19  -0.304   0.035   0.169
    1UNL    C14   20  -0.313   0.312  -0.086
    1UNL     O7   21  -0.355   0.422  -0.012
    1UNL    C15   22  -0.164   0.322  -0.129
    1UNL     O8   23  -0.130   0.453  -0.163
    1UNL    C16   24  -0.141   0.222  -0.243
    1UNL     O9   25  -0.008   0.186  -0.258
    1UNL    C17   26  -0.273  -0.347  -0.053
    1UNL    O10   27  -0.224  -0.474  -0.086
    1UNL    C18   28  -0.294  -0.355   0.099
    1UNL    O11   29  -0.350  -0.486   0.146
    1UNL    C19   30  -0.154  -0.336   0.177
    1UNL    O12   31  -0.093  -0.468   0.180
    1UNL    C20   32   0.186  -0.078   0.026
    1UNL    C21   33   0.075   0.033   0.032
    1UNL    O13   34   0.132   0.164   0.015
    1UNL    C22   35   0.085   0.243   0.115
    1UNL    O14   36  -0.008   0.216   0.189
    1UNL    C23   37   0.154   0.373   0.133
    1UNL    C24   38   0.272   0.372   0.199
    1UNL    C25   39   0.338   0.495   0.216
    1UNL    C26   40   0.279   0.613   0.185
    1UNL    C27   41   0.155   0.612   0.113
    1UNL    C28   42   0.099   0.494   0.085
    1UNL    C29   43   0.286  -0.081   0.140
    1UNL    O15   44   0.327   0.015   0.198
    1UNL    O16   45   0.334  -0.209   0.166
    1UNL     H1   46   0.282  -0.505   0.010
    1UNL     H2   47   0.190  -0.442   0.170
    1UNL     H3   48   0.355  -0.476   0.178
    1UNL     H4   49   0.394  -0.351  -0.137
    1UNL     H5   50   0.506  -0.299  -0.009
    1UNL     H6   51   0.442  -0.135  -0.219
    1UNL     H7   52   0.460  -0.018   0.038
    1UNL     H8   53   0.241   0.004  -0.186
    1UNL     H9   54   0.054  -0.160  -0.174
    1UNL    H10   55   0.191  -0.270  -0.217
    1UNL    H11   56   0.011  -0.181   0.179
    1UNL    H12   57  -0.091  -0.292  -0.138
    1UNL    H13   58  -0.346  -0.121  -0.184
    1UNL    H14   59  -0.283  -0.218  -0.312
    1UNL    H15   60  -0.333   0.091  -0.263
    1UNL    H16   61  -0.443   0.152  -0.052
    1UNL    H17   62  -0.369   0.233   0.187
    1UNL    H18   63  -0.204   0.204   0.133
    1UNL    H19   64  -0.276  -0.028   0.099
    1UNL    H20   65  -0.371   0.315  -0.179
    1UNL    H21   66  -0.434   0.401   0.043
    1UNL    H22   67  -0.077   0.290  -0.058
    1UNL    H23   68  -0.200   0.517  -0.124
    1UNL    H24   69  -0.163   0.275  -0.336
    1UNL    H25   70   0.034   0.163  -0.165
    1UNL    H26   71  -0.367  -0.341  -0.104
    1UNL    H27   72  -0.280  -0.545  -0.048
    1UNL    H28   73  -0.363  -0.276   0.118
    1UNL    H29   74  -0.279  -0.548   0.170
    1UNL    H30   75  -0.181  -0.318   0.286
    1UNL    H31   76  -0.051  -0.482   0.095
    1UNL    H32   77  -0.005   0.006  -0.032
    1UNL    H33   78   0.023   0.036   0.136
    1UNL    H34   79   0.304   0.275   0.230
    1UNL    H35   80   0.437   0.507   0.258
    1UNL    H36   81   0.313   0.714   0.207
    1UNL    H37   82   0.103   0.707   0.090
    1UNL    H38   83   0.004   0.485   0.037
   0.00000   0.00000   0.00000   0.00000   0.00000   0.00000   0.00000   0.00000   0.00000
Generated with MDTraj, t= 46.0
 83
    1UNL     C1    1   0.289  -0.445   0.104
    1UNL     C2    2   0.302  -0.303   0.057
    1UNL     C3    3   0.425  -0.275  -0.041
    1UNL     C4    4   0.418  -0.138  -0.108
    1UNL     O1    5   0.508  -0.045  -0.049
    1UNL     C5    6   0.275  -0.085  -0.113
    1UNL     C6    7   0.177  -0.197  -0.157
    1UNL     C7    8   0.167  -0.238  -0.001
    1UNL     O2    9   0.043  -0.306   0.041
    1UNL     C8   10  -0.057  -0.223   0.088
    1UNL     O3   11  -0.125  -0.150  -0.008
    1UNL     C9   12  -0.167  -0.240  -0.115
    1UNL    C10   13  -0.224  -0.153  -0.224
    1UNL     O4   14  -0.155  -0.033  -0.250
    1UNL    C11   15  -0.220   0.077  -0.191
    1UNL     O5   16  -0.248   0.067  -0.049
    1UNL    C12   17  -0.335   0.165   0.002
    1UNL    C13   18  -0.316   0.173   0.159
    1UNL     O6   19  -0.298   0.049   0.208
    1UNL    C14   20  -0.316   0.305  -0.067
    1UNL     O7   21  -0.339   0.418   0.017
    1UNL    C15   22  -0.166   0.319  -0.121
    1UNL     O8   23  -0.157   0.445  -0.179
    1UNL    C16   24  -0.136   0.211  -0.225
    1UNL     O9   25  -0.001   0.196  -0.232
    1UNL    C17   26  -0.274  -0.355  -0.078
    1UNL    O10   27  -0.222  -0.487  -0.107
    1UNL    C18   28  -0.306  -0.334   0.072
    1UNL    O11   29  -0.385  -0.449   0.114
    1UNL    C19   30  -0.174  -0.317   0.154
    1UNL    O12   31  -0.129  -0.442   0.186
    1UNL    C20   32   0.205  -0.087   0.023
    1UNL    C21   33   0.091   0.018   0.034
    1UNL    O13   34   0.139   0.148   0.012
    1UNL    C22   35   0.073   0.236   0.097
    1UNL    O14   36  -0.025   0.218   0.168
    1UNL    C23   37   0.140   0.370   0.104
    1UNL    C24   38   0.266   0.374   0.162
    1UNL    C25   39   0.324   0.495   0.196
    1UNL    C26   40   0.262   0.613   0.169
    1UNL    C27   41   0.136   0.606   0.098
    1UNL    C28   42   0.081   0.490   0.063
    1UNL    C29   43   0.298  -0.090   0.149
    1UNL    O15   44   0.338   0.008   0.204
    1UNL    O16   45   0.340  -0.218   0.167
    1UNL     H1   46   0.227  -0.513   0.042
    1UNL     H2   47   0.263  -0.441   0.213
    1UNL     H3   48   0.394  -0.499   0.113
    1UNL     H4   49   0.429  -0.353  -0.115
    1UNL     H5   50   0.513  -0.275   0.022
    1UNL     H6   51   0.450  -0.149  -0.214
    1UNL     H7   52   0.463  -0.008   0.031
    1UNL     H8   53   0.267   0.014  -0.155
    1UNL     H9   54   0.086  -0.158  -0.209
    1UNL    H10   55   0.224  -0.277  -0.221
    1UNL    H11   56  -0.007  -0.162   0.168
    1UNL    H12   57  -0.075  -0.285  -0.148
    1UNL    H13   58  -0.334  -0.132  -0.211
    1UNL    H14   59  -0.229  -0.214  -0.324
    1UNL    H15   60  -0.317   0.083  -0.235
    1UNL    H16   61  -0.437   0.133  -0.037
    1UNL    H17   62  -0.408   0.200   0.202
    1UNL    H18   63  -0.234   0.241   0.195
    1UNL    H19   64  -0.272  -0.017   0.137
    1UNL    H20   65  -0.397   0.311  -0.141
    1UNL    H21   66  -0.412   0.395   0.078
    1UNL    H22   67  -0.095   0.323  -0.031
    1UNL    H23   68  -0.231   0.493  -0.142
    1UNL    H24   69  -0.175   0.250  -0.322
    1UNL    H25   70   0.032   0.181  -0.146
    1UNL    H26   71  -0.369  -0.331  -0.128
    1UNL    H27   72  -0.277  -0.556  -0.065
    1UNL    H28   73  -0.355  -0.238   0.087
    1UNL    H29   74  -0.342  -0.482   0.197
    1UNL    H30   75  -0.198  -0.265   0.253
    1UNL    H31   76  -0.068  -0.467   0.107
    1UNL    H32   77   0.013  -0.008  -0.031
    1UNL    H33   78   0.043   0.017   0.138
    1UNL    H34   79   0.320   0.282   0.192
    1UNL    H35   80   0.414   0.486   0.259
    1UNL    H36   81   0.303   0.711   0.198
    1UNL    H37   82   0.088   0.695   0.084
    1UNL    H38   83  -0.021   0.482   0.023
   0.00000   0.00000   0.00000   0.00000   0.00000   0.00000   0.00000   0.00000   0.00000
Generated with MDTraj, t= 47.0
 83
    1UNL     C1    1   0.294  -0.457   0.109
    1UNL     C2    2   0.304  -0.311   0.063
    1UNL     C3    3   0.419  -0.290  -0.044
    1UNL     C4    4   0.410  -0.142  -0.103
    1UNL     O1    5   0.491  -0.048  -0.033
    1UNL     C5    6   0.261  -0.091  -0.103
    1UNL     C6    7   0.157  -0.199  -0.142
    1UNL     C7    8   0.163  -0.247   0.010
    1UNL     O2    9   0.051  -0.320   0.061
    1UNL     C8   10  -0.054  -0.239   0.091
    1UNL     O3   11  -0.103  -0.166  -0.015
    1UNL     C9   12  -0.152  -0.240  -0.129
    1UNL    C10   13  -0.224  -0.143  -0.217
    1UNL     O4   14  -0.154  -0.024  -0.260
    1UNL    C11   15  -0.209   0.088  -0.196
    1UNL     O5   16  -0.228   0.065  -0.053
    1UNL    C12   17  -0.323   0.158   0.005
    1UNL    C13   18  -0.302   0.146   0.160
    1UNL     O6   19  -0.294   0.011   0.198
    1UNL    C14   20  -0.323   0.300  -0.059
    1UNL     O7   21  -0.348   0.405   0.029
    1UNL    C15   22  -0.187   0.335  -0.114
    1UNL     O8   23  -0.181   0.465  -0.159
    1UNL    C16   24  -0.139   0.229  -0.224
    1UNL     O9   25   0.001   0.224  -0.241
    1UNL    C17   26  -0.248  -0.349  -0.078
    1UNL    O10   27  -0.202  -0.481  -0.102
    1UNL    C18   28  -0.293  -0.319   0.065
    1UNL    O11   29  -0.398  -0.403   0.124
    1UNL    C19   30  -0.173  -0.329   0.155
    1UNL    O12   31  -0.129  -0.458   0.156
    1UNL    C20   32   0.191  -0.090   0.039
    1UNL    C21   33   0.080   0.020   0.057
    1UNL    O13   34   0.143   0.141   0.029
    1UNL    C22   35   0.073   0.247   0.089
    1UNL    O14   36  -0.046   0.239   0.113
    1UNL    C23   37   0.137   0.377   0.115
    1UNL    C24   38   0.275   0.378   0.147
    1UNL    C25   39   0.338   0.499   0.166
    1UNL    C26   40   0.272   0.614   0.123
    1UNL    C27   41   0.140   0.614   0.092
    1UNL    C28   42   0.069   0.492   0.088
    1UNL    C29   43   0.290  -0.092   0.153
    1UNL    O15   44   0.333   0.003   0.207
    1UNL    O16   45   0.337  -0.220   0.171
    1UNL     H1   46   0.310  -0.526   0.024
    1UNL     H2   47   0.196  -0.479   0.168
    1UNL     H3   48   0.371  -0.484   0.190
    1UNL     H4   49   0.396  -0.370  -0.116
    1UNL     H5   50   0.514  -0.306  -0.000
    1UNL     H6   51   0.451  -0.144  -0.208
    1UNL     H7   52   0.451  -0.037   0.055
    1UNL     H8   53   0.253   0.011  -0.137
    1UNL     H9   54   0.073  -0.144  -0.183
    1UNL    H10   55   0.215  -0.269  -0.215
    1UNL    H11   56  -0.020  -0.166   0.169
    1UNL    H12   57  -0.065  -0.290  -0.170
    1UNL    H13   58  -0.322  -0.117  -0.172
    1UNL    H14   59  -0.256  -0.196  -0.313
    1UNL    H15   60  -0.306   0.095  -0.244
    1UNL    H16   61  -0.423   0.119  -0.032
    1UNL    H17   62  -0.369   0.195   0.229
    1UNL    H18   63  -0.198   0.178   0.191
    1UNL    H19   64  -0.219  -0.029   0.151
    1UNL    H20   65  -0.400   0.312  -0.137
    1UNL    H21   66  -0.412   0.384   0.100
    1UNL    H22   67  -0.101   0.333  -0.036
    1UNL    H23   68  -0.254   0.520  -0.111
    1UNL    H24   69  -0.163   0.251  -0.332
    1UNL    H25   70   0.047   0.211  -0.147
    1UNL    H26   71  -0.341  -0.339  -0.140
    1UNL    H27   72  -0.256  -0.551  -0.055
    1UNL    H28   73  -0.338  -0.219   0.066
    1UNL    H29   74  -0.358  -0.477   0.173
    1UNL    H30   75  -0.210  -0.307   0.264
    1UNL    H31   76  -0.103  -0.473   0.067
    1UNL    H32   77   0.001   0.010  -0.011
    1UNL    H33   78   0.038   0.023   0.162
    1UNL    H34   79   0.330   0.288   0.161
    1UNL    H35   80   0.437   0.498   0.201
    1UNL    H36   81   0.330   0.700   0.123
    1UNL    H37   82   0.091   0.713   0.064
    1UNL    H38   83  -0.029   0.480   0.049
   0.00000   0.00000   0.00000   0.00000   0.00000   0.00000   0.00000   0.00000   0.00000
Generated with MDTraj, t= 48.0
 83
    1UNL     C1    1   0.280  -0.448   0.094
    1UNL     C2    2   0.304  -0.303   0.060
    1UNL     C3    3   0.423  -0.286  -0.045
    1UNL     C4    4   0.419  -0.135  -0.091
    1UNL     O1    5   0.506  -0.050  -0.023
    1UNL     C5    6   0.273  -0.079  -0.091
    1UNL     C6    7   0.166  -0.181  -0.135
    1UNL     C7    8   0.165  -0.237   0.005
    1UNL     O2    9   0.046  -0.309   0.052
    1UNL     C8   10  -0.068  -0.242   0.095
    1UNL     O3   11  -0.110  -0.154  -0.000
    1UNL     C9   12  -0.162  -0.222  -0.118
    1UNL    C10   13  -0.212  -0.142  -0.238
    1UNL     O4   14  -0.144  -0.017  -0.263
    1UNL    C11   15  -0.209   0.088  -0.200
    1UNL     O5   16  -0.237   0.064  -0.063
    1UNL    C12   17  -0.343   0.140  -0.013
    1UNL    C13   18  -0.325   0.132   0.141
    1UNL     O6   19  -0.290  -0.009   0.176
    1UNL    C14   20  -0.341   0.288  -0.058
    1UNL     O7   21  -0.375   0.380   0.047
    1UNL    C15   22  -0.201   0.333  -0.113
    1UNL     O8   23  -0.207   0.464  -0.170
    1UNL    C16   24  -0.136   0.224  -0.221
    1UNL     O9   25   0.001   0.214  -0.210
    1UNL    C17   26  -0.271  -0.332  -0.076
    1UNL    O10   27  -0.224  -0.462  -0.104
    1UNL    C18   28  -0.312  -0.328   0.071
    1UNL    O11   29  -0.393  -0.442   0.108
    1UNL    C19   30  -0.189  -0.339   0.155
    1UNL    O12   31  -0.140  -0.474   0.159
    1UNL    C20   32   0.202  -0.091   0.052
    1UNL    C21   33   0.096   0.025   0.073
    1UNL    O13   34   0.146   0.149   0.031
    1UNL    C22   35   0.083   0.252   0.091
    1UNL    O14   36  -0.025   0.245   0.147
    1UNL    C23   37   0.155   0.385   0.088
    1UNL    C24   38   0.291   0.381   0.094
    1UNL    C25   39   0.362   0.491   0.114
    1UNL    C26   40   0.302   0.618   0.115
    1UNL    C27   41   0.166   0.626   0.103
    1UNL    C28   42   0.090   0.505   0.101
    1UNL    C29   43   0.299  -0.096   0.167
    1UNL    O15   44   0.326   0.003   0.231
    1UNL    O16   45   0.351  -0.225   0.180
    1UNL     H1   46   0.231  -0.499   0.002
    1UNL     H2   47   0.225  -0.464   0.196
    1UNL     H3   48   0.377  -0.497   0.112
    1UNL     H4   49   0.414  -0.358  -0.130
    1UNL     H5   50   0.507  -0.311   0.014
    1UNL     H6   51   0.451  -0.131  -0.200
    1UNL     H7   52   0.469  -0.030   0.067
    1UNL     H8   53   0.270   0.017  -0.140
    1UNL     H9   54   0.077  -0.131  -0.173
    1UNL    H10   55   0.213  -0.258  -0.208
    1UNL    H11   56  -0.029  -0.173   0.177
    1UNL    H12   57  -0.074  -0.284  -0.145
    1UNL    H13   58  -0.319  -0.126  -0.233
    1UNL    H14   59  -0.209  -0.203  -0.333
    1UNL    H15   60  -0.305   0.103  -0.253
    1UNL    H16   61  -0.433   0.084  -0.045
    1UNL    H17   62  -0.417   0.147   0.201
    1UNL    H18   63  -0.242   0.199   0.182
    1UNL    H19   64  -0.223  -0.044   0.113
    1UNL    H20   65  -0.424   0.305  -0.131
    1UNL    H21   66  -0.451   0.347   0.101
    1UNL    H22   67  -0.132   0.354  -0.022
    1UNL    H23   68  -0.265   0.516  -0.109
    1UNL    H24   69  -0.154   0.277  -0.321
    1UNL    H25   70   0.021   0.199  -0.121
    1UNL    H26   71  -0.356  -0.310  -0.149
    1UNL    H27   72  -0.277  -0.529  -0.056
    1UNL    H28   73  -0.365  -0.235   0.102
    1UNL    H29   74  -0.346  -0.495   0.181
    1UNL    H30   75  -0.214  -0.311   0.263
    1UNL    H31   76  -0.052  -0.483   0.109
    1UNL    H32   77   0.009   0.011   0.020
    1UNL    H33   78   0.073   0.040   0.183
    1UNL    H34   79   0.348   0.287   0.089
    1UNL    H35   80   0.471   0.495   0.134
    1UNL    H36   81   0.368   0.707   0.135
    1UNL    H37   82   0.107   0.709   0.103
    1UNL    H38   83  -0.017   0.517   0.100
   0.00000   0.00000   0.00000   0.00000   0.00000   0.00000   0.00000   0.00000   0.00000
Generated with MDTraj, t= 49.0
 83
    1UNL     C1    1   0.262  -0.451   0.076
    1UNL     C2    2   0.290  -0.304   0.057
    1UNL     C3    3   0.410  -0.270  -0.030
    1UNL     C4    4   0.410  -0.121  -0.076
    1UNL     O1    5   0.503  -0.042  -0.009
    1UNL     C5    6   0.266  -0.061  -0.079
    1UNL     C6    7   0.159  -0.162  -0.133
    1UNL     C7    8   0.162  -0.225   0.008
    1UNL     O2    9   0.056  -0.301   0.045
    1UNL     C8   10  -0.058  -0.228   0.083
    1UNL     O3   11  -0.120  -0.150  -0.019
    1UNL     C9   12  -0.158  -0.235  -0.125
    1UNL    C10   13  -0.186  -0.158  -0.251
    1UNL     O4   14  -0.132  -0.024  -0.255
    1UNL    C11   15  -0.217   0.075  -0.194
    1UNL     O5   16  -0.250   0.053  -0.056
    1UNL    C12   17  -0.345   0.143  -0.000
    1UNL    C13   18  -0.315   0.142   0.153
    1UNL     O6   19  -0.333  -0.002   0.183
    1UNL    C14   20  -0.345   0.279  -0.061
    1UNL     O7   21  -0.411   0.377   0.016
    1UNL    C15   22  -0.203   0.321  -0.105
    1UNL     O8   23  -0.193   0.454  -0.149
    1UNL    C16   24  -0.155   0.222  -0.217
    1UNL     O9   25  -0.016   0.207  -0.223
    1UNL    C17   26  -0.278  -0.333  -0.086
    1UNL    O10   27  -0.258  -0.460  -0.146
    1UNL    C18   28  -0.301  -0.342   0.072
    1UNL    O11   29  -0.358  -0.464   0.104
    1UNL    C19   30  -0.172  -0.328   0.152
    1UNL    O12   31  -0.119  -0.458   0.174
    1UNL    C20   32   0.204  -0.081   0.063
    1UNL    C21   33   0.096   0.033   0.088
    1UNL    O13   34   0.150   0.155   0.048
    1UNL    C22   35   0.089   0.258   0.103
    1UNL    O14   36  -0.019   0.256   0.158
    1UNL    C23   37   0.168   0.383   0.101
    1UNL    C24   38   0.302   0.377   0.067
    1UNL    C25   39   0.377   0.491   0.054
    1UNL    C26   40   0.322   0.615   0.079
    1UNL    C27   41   0.194   0.620   0.117
    1UNL    C28   42   0.117   0.504   0.143
    1UNL    C29   43   0.298  -0.106   0.182
    1UNL    O15   44   0.334  -0.001   0.237
    1UNL    O16   45   0.328  -0.241   0.182
    1UNL     H1   46   0.217  -0.490  -0.026
    1UNL     H2   47   0.184  -0.448   0.160
    1UNL     H3   48   0.346  -0.510   0.118
    1UNL     H4   49   0.405  -0.344  -0.112
    1UNL     H5   50   0.496  -0.282   0.032
    1UNL     H6   51   0.448  -0.116  -0.182
    1UNL     H7   52   0.469  -0.012   0.078
    1UNL     H8   53   0.266   0.036  -0.130
    1UNL     H9   54   0.058  -0.121  -0.165
    1UNL    H10   55   0.201  -0.237  -0.204
    1UNL    H11   56  -0.024  -0.149   0.157
    1UNL    H12   57  -0.066  -0.299  -0.134
    1UNL    H13   58  -0.290  -0.160  -0.266
    1UNL    H14   59  -0.154  -0.208  -0.343
    1UNL    H15   60  -0.308   0.067  -0.259
    1UNL    H16   61  -0.437   0.087  -0.018
    1UNL    H17   62  -0.388   0.205   0.212
    1UNL    H18   63  -0.203   0.161   0.181
    1UNL    H19   64  -0.288  -0.046   0.107
    1UNL    H20   65  -0.408   0.278  -0.153
    1UNL    H21   66  -0.487   0.335   0.061
    1UNL    H22   67  -0.135   0.300  -0.013
    1UNL    H23   68  -0.243   0.499  -0.081
    1UNL    H24   69  -0.169   0.264  -0.324
    1UNL    H25   70   0.026   0.197  -0.128
    1UNL    H26   71  -0.374  -0.286  -0.129
    1UNL    H27   72  -0.304  -0.524  -0.088
    1UNL    H28   73  -0.371  -0.263   0.113
    1UNL    H29   74  -0.290  -0.531   0.107
    1UNL    H30   75  -0.198  -0.288   0.253
    1UNL    H31   76  -0.027  -0.465   0.156
    1UNL    H32   77   0.014   0.025   0.026
    1UNL    H33   78   0.070   0.042   0.197
    1UNL    H34   79   0.341   0.280   0.061
    1UNL    H35   80   0.478   0.488   0.024
    1UNL    H36   81   0.376   0.707   0.075
    1UNL    H37   82   0.138   0.721   0.127
    1UNL    H38   83   0.018   0.500   0.193
   0.00000   0.00000   0.00000   0.00000   0.00000   0.00000   0.00000   0.00000   0.00000
Generated with MDTraj, t= 50.0
 83
    1UNL     C1    1   0.300  -0.448   0.070
    1UNL     C2    2   0.304  -0.302   0.048
    1UNL     C3    3   0.420  -0.260  -0.056
    1UNL     C4    4   0.410  -0.108  -0.082
    1UNL     O1    5   0.484  -0.029   0.014
    1UNL     C5    6   0.259  -0.063  -0.076
    1UNL     C6    7   0.159  -0.167  -0.134
    1UNL     C7    8   0.160  -0.232   0.009
    1UNL     O2    9   0.052  -0.309   0.058
    1UNL     C8   10  -0.066  -0.241   0.100
    1UNL     O3   11  -0.130  -0.156   0.002
    1UNL     C9   12  -0.171  -0.229  -0.118
    1UNL    C10   13  -0.213  -0.146  -0.234
    1UNL     O4   14  -0.129  -0.033  -0.238
    1UNL    C11   15  -0.201   0.078  -0.198
    1UNL     O5   16  -0.261   0.048  -0.071
    1UNL    C12   17  -0.356   0.142  -0.023
    1UNL    C13   18  -0.340   0.138   0.136
    1UNL     O6   19  -0.292   0.013   0.179
    1UNL    C14   20  -0.339   0.282  -0.074
    1UNL     O7   21  -0.400   0.379   0.012
    1UNL    C15   22  -0.192   0.312  -0.097
    1UNL     O8   23  -0.187   0.446  -0.144
    1UNL    C16   24  -0.125   0.221  -0.201
    1UNL     O9   25   0.015   0.220  -0.194
    1UNL    C17   26  -0.282  -0.332  -0.086
    1UNL    O10   27  -0.256  -0.454  -0.155
    1UNL    C18   28  -0.305  -0.350   0.072
    1UNL    O11   29  -0.360  -0.475   0.093
    1UNL    C19   30  -0.177  -0.340   0.166
    1UNL    O12   31  -0.111  -0.464   0.174
    1UNL    C20   32   0.190  -0.082   0.063
    1UNL    C21   33   0.078   0.031   0.087
    1UNL    O13   34   0.134   0.155   0.048
    1UNL    C22   35   0.084   0.265   0.108
    1UNL    O14   36  -0.017   0.267   0.172
    1UNL    C23   37   0.162   0.387   0.094
    1UNL    C24   38   0.285   0.378   0.022
    1UNL    C25   39   0.368   0.491   0.011
    1UNL    C26   40   0.329   0.610   0.069
    1UNL    C27   41   0.208   0.615   0.141
    1UNL    C28   42   0.129   0.509   0.153
    1UNL    C29   43   0.284  -0.112   0.181
    1UNL    O15   44   0.308  -0.015   0.254
    1UNL    O16   45   0.341  -0.237   0.175
    1UNL     H1   46   0.256  -0.494  -0.029
    1UNL     H2   47   0.237  -0.468   0.158
    1UNL     H3   48   0.406  -0.478   0.105
    1UNL     H4   49   0.407  -0.316  -0.149
    1UNL     H5   50   0.512  -0.284  -0.002
    1UNL     H6   51   0.452  -0.073  -0.178
    1UNL     H7   52   0.441  -0.028   0.102
    1UNL     H8   53   0.250   0.039  -0.118
    1UNL     H9   54   0.053  -0.125  -0.160
    1UNL    H10   55   0.210  -0.213  -0.220
    1UNL    H11   56  -0.033  -0.167   0.178
    1UNL    H12   57  -0.079  -0.288  -0.152
    1UNL    H13   58  -0.313  -0.118  -0.226
    1UNL    H14   59  -0.215  -0.207  -0.322
    1UNL    H15   60  -0.283   0.086  -0.276
    1UNL    H16   61  -0.448   0.099  -0.060
    1UNL    H17   62  -0.438   0.159   0.188
    1UNL    H18   63  -0.253   0.210   0.163
    1UNL    H19   64  -0.255  -0.030   0.097
    1UNL    H20   65  -0.390   0.310  -0.169
    1UNL    H21   66  -0.496   0.357   0.015
    1UNL    H22   67  -0.128   0.310  -0.000
    1UNL    H23   68  -0.249   0.497  -0.079
    1UNL    H24   69  -0.146   0.282  -0.298
    1UNL    H25   70   0.040   0.208  -0.104
    1UNL    H26   71  -0.382  -0.294  -0.130
    1UNL    H27   72  -0.308  -0.527  -0.113
    1UNL    H28   73  -0.391  -0.280   0.101
    1UNL    H29   74  -0.296  -0.548   0.120
    1UNL    H30   75  -0.212  -0.308   0.263
    1UNL    H31   76  -0.065  -0.494   0.086
    1UNL    H32   77  -0.006   0.015   0.028
    1UNL    H33   78   0.059   0.053   0.196
    1UNL    H34   79   0.327   0.285  -0.021
    1UNL    H35   80   0.462   0.481  -0.043
    1UNL    H36   81   0.381   0.699   0.043
    1UNL    H37   82   0.182   0.707   0.175
    1UNL    H38   83   0.039   0.519   0.204
   0.00000   0.00000   0.00000   0.00000   0.00000   0.00000   0.00000   0.00000   0.00000
Generated with MDTraj, t= 51.0
 83
    1UNL     C1    1   0.290  -0.449   0.070
    1UNL     C2    2   0.297  -0.296   0.051
    1UNL     C3    3   0.411  -0.247  -0.047
    1UNL     C4    4   0.398  -0.096  -0.088
    1UNL     O1    5   0.484  -0.005  -0.013
    1UNL     C5    6   0.247  -0.052  -0.072
    1UNL     C6    7   0.144  -0.156  -0.133
    1UNL     C7    8   0.155  -0.232   0.002
    1UNL     O2    9   0.048  -0.319   0.045
    1UNL     C8   10  -0.060  -0.255   0.103
    1UNL     O3   11  -0.131  -0.169   0.011
    1UNL     C9   12  -0.171  -0.238  -0.110
    1UNL    C10   13  -0.204  -0.152  -0.233
    1UNL     O4   14  -0.132  -0.030  -0.256
    1UNL    C11   15  -0.194   0.085  -0.199
    1UNL     O5   16  -0.225   0.066  -0.058
    1UNL    C12   17  -0.328   0.157  -0.011
    1UNL    C13   18  -0.304   0.139   0.146
    1UNL     O6   19  -0.328   0.009   0.174
    1UNL    C14   20  -0.326   0.296  -0.073
    1UNL     O7   21  -0.366   0.413   0.003
    1UNL    C15   22  -0.177   0.329  -0.109
    1UNL     O8   23  -0.167   0.467  -0.153
    1UNL    C16   24  -0.126   0.229  -0.212
    1UNL     O9   25   0.012   0.213  -0.216
    1UNL    C17   26  -0.270  -0.346  -0.077
    1UNL    O10   27  -0.218  -0.470  -0.123
    1UNL    C18   28  -0.295  -0.349   0.075
    1UNL    O11   29  -0.376  -0.452   0.107
    1UNL    C19   30  -0.157  -0.367   0.157
    1UNL    O12   31  -0.108  -0.498   0.135
    1UNL    C20   32   0.177  -0.084   0.068
    1UNL    C21   33   0.069   0.023   0.102
    1UNL    O13   34   0.136   0.143   0.063
    1UNL    C22   35   0.077   0.254   0.123
    1UNL    O14   36  -0.033   0.260   0.172
    1UNL    C23   37   0.155   0.375   0.099
    1UNL    C24   38   0.256   0.373   0.002
    1UNL    C25   39   0.332   0.491  -0.016
    1UNL    C26   40   0.305   0.601   0.057
    1UNL    C27   41   0.208   0.603   0.156
    1UNL    C28   42   0.127   0.496   0.167
    1UNL    C29   43   0.275  -0.105   0.186
    1UNL    O15   44   0.300  -0.024   0.275
    1UNL    O16   45   0.331  -0.232   0.182
    1UNL     H1   46   0.246  -0.491  -0.024
    1UNL     H2   47   0.220  -0.468   0.155
    1UNL     H3   48   0.394  -0.488   0.115
    1UNL     H4   49   0.406  -0.314  -0.132
    1UNL     H5   50   0.502  -0.265   0.015
    1UNL     H6   51   0.423  -0.076  -0.192
    1UNL     H7   52   0.434   0.027   0.065
    1UNL     H8   53   0.230   0.053  -0.102
    1UNL     H9   54   0.040  -0.108  -0.151
    1UNL    H10   55   0.181  -0.213  -0.219
    1UNL    H11   56  -0.017  -0.191   0.186
    1UNL    H12   57  -0.080  -0.295  -0.149
    1UNL    H13   58  -0.308  -0.140  -0.230
    1UNL    H14   59  -0.188  -0.206  -0.323
    1UNL    H15   60  -0.291   0.090  -0.256
    1UNL    H16   61  -0.420   0.107  -0.038
    1UNL    H17   62  -0.381   0.199   0.198
    1UNL    H18   63  -0.195   0.158   0.167
    1UNL    H19   64  -0.274  -0.053   0.117
    1UNL    H20   65  -0.396   0.303  -0.157
    1UNL    H21   66  -0.464   0.411   0.009
    1UNL    H22   67  -0.106   0.311  -0.018
    1UNL    H23   68  -0.227   0.520  -0.105
    1UNL    H24   69  -0.159   0.273  -0.315
    1UNL    H25   70   0.045   0.205  -0.124
    1UNL    H26   71  -0.370  -0.330  -0.126
    1UNL    H27   72  -0.277  -0.547  -0.117
    1UNL    H28   73  -0.339  -0.248   0.111
    1UNL    H29   74  -0.331  -0.515   0.167
    1UNL    H30   75  -0.168  -0.348   0.260
    1UNL    H31   76  -0.081  -0.510   0.045
    1UNL    H32   77  -0.018   0.018   0.043
    1UNL    H33   78   0.045   0.028   0.213
    1UNL    H34   79   0.277   0.282  -0.046
    1UNL    H35   80   0.412   0.493  -0.088
    1UNL    H36   81   0.359   0.700   0.041
    1UNL    H37   82   0.195   0.697   0.210
    1UNL    H38   83   0.035   0.492   0.231
   0.00000   0.00000   0.00000   0.00000   0.00000   0.00000   0.00000   0.00000   0.00000
Generated with MDTraj, t= 52.0
 83
    1UNL     C1    1   0.294  -0.442   0.060
    1UNL     C2    2   0.299  -0.289   0.044
    1UNL     C3    3   0.413  -0.244  -0.058
    1UNL     C4    4   0.407  -0.094  -0.082
    1UNL     O1    5   0.484  -0.028   0.014
    1UNL     C5    6   0.255  -0.052  -0.078
    1UNL     C6    7   0.157  -0.163  -0.133
    1UNL     C7    8   0.154  -0.227   0.007
    1UNL     O2    9   0.052  -0.317   0.054
    1UNL     C8   10  -0.063  -0.254   0.096
    1UNL     O3   11  -0.129  -0.167   0.004
    1UNL     C9   12  -0.168  -0.237  -0.115
    1UNL    C10   13  -0.231  -0.143  -0.218
    1UNL     O4   14  -0.147  -0.036  -0.244
    1UNL    C11   15  -0.187   0.077  -0.183
    1UNL     O5   16  -0.209   0.075  -0.038
    1UNL    C12   17  -0.318   0.171  -0.007
    1UNL    C13   18  -0.331   0.161   0.142
    1UNL     O6   19  -0.314   0.027   0.188
    1UNL    C14   20  -0.296   0.313  -0.059
    1UNL     O7   21  -0.308   0.415   0.038
    1UNL    C15   22  -0.149   0.327  -0.129
    1UNL     O8   23  -0.143   0.458  -0.196
    1UNL    C16   24  -0.108   0.206  -0.222
    1UNL     O9   25   0.027   0.176  -0.207
    1UNL    C17   26  -0.264  -0.350  -0.079
    1UNL    O10   27  -0.220  -0.478  -0.113
    1UNL    C18   28  -0.297  -0.358   0.069
    1UNL    O11   29  -0.384  -0.466   0.088
    1UNL    C19   30  -0.162  -0.366   0.147
    1UNL    O12   31  -0.117  -0.499   0.147
    1UNL    C20   32   0.181  -0.083   0.056
    1UNL    C21   33   0.064   0.017   0.081
    1UNL    O13   34   0.113   0.151   0.041
    1UNL    C22   35   0.064   0.249   0.127
    1UNL    O14   36  -0.033   0.248   0.204
    1UNL    C23   37   0.133   0.381   0.096
    1UNL    C24   38   0.223   0.393  -0.002
    1UNL    C25   39   0.288   0.510  -0.024
    1UNL    C26   40   0.280   0.616   0.062
    1UNL    C27   41   0.185   0.602   0.163
    1UNL    C28   42   0.107   0.491   0.176
    1UNL    C29   43   0.276  -0.105   0.174
    1UNL    O15   44   0.302  -0.018   0.253
    1UNL    O16   45   0.335  -0.230   0.169
    1UNL     H1   46   0.273  -0.490  -0.037
    1UNL     H2   47   0.208  -0.468   0.133
    1UNL     H3   48   0.386  -0.472   0.122
    1UNL     H4   49   0.394  -0.306  -0.143
    1UNL     H5   50   0.512  -0.271  -0.009
    1UNL     H6   51   0.444  -0.068  -0.179
    1UNL     H7   52   0.460  -0.059   0.105
    1UNL     H8   53   0.229   0.044  -0.127
    1UNL     H9   54   0.065  -0.110  -0.170
    1UNL    H10   55   0.188  -0.230  -0.219
    1UNL    H11   56  -0.036  -0.209   0.197
    1UNL    H12   57  -0.082  -0.287  -0.166
    1UNL    H13   58  -0.323  -0.102  -0.180
    1UNL    H14   59  -0.258  -0.196  -0.311
    1UNL    H15   60  -0.287   0.093  -0.228
    1UNL    H16   61  -0.411   0.129  -0.052
    1UNL    H17   62  -0.427   0.199   0.175
    1UNL    H18   63  -0.240   0.213   0.179
    1UNL    H19   64  -0.235  -0.006   0.138
    1UNL    H20   65  -0.375   0.339  -0.130
    1UNL    H21   66  -0.398   0.456   0.043
    1UNL    H22   67  -0.067   0.322  -0.046
    1UNL    H23   68  -0.184   0.525  -0.138
    1UNL    H24   69  -0.126   0.237  -0.334
    1UNL    H25   70   0.049   0.164  -0.108
    1UNL    H26   71  -0.365  -0.335  -0.122
    1UNL    H27   72  -0.287  -0.545  -0.078
    1UNL    H28   73  -0.354  -0.263   0.104
    1UNL    H29   74  -0.355  -0.540   0.145
    1UNL    H30   75  -0.188  -0.358   0.250
    1UNL    H31   76  -0.064  -0.526   0.066
    1UNL    H32   77  -0.021  -0.003   0.023
    1UNL    H33   78   0.033  -0.000   0.190
    1UNL    H34   79   0.252   0.302  -0.059
    1UNL    H35   80   0.363   0.514  -0.100
    1UNL    H36   81   0.340   0.699   0.066
    1UNL    H37   82   0.163   0.688   0.241
    1UNL    H38   83   0.038   0.489   0.253
   0.00000   0.00000   0.00000   0.00000   0.00000   0.00000   0.00000   0.00000   0.00000
Generated with MDTraj, t= 53.0
 83
    1UNL     C1    1   0.279  -0.451   0.076
    1UNL     C2    2   0.295  -0.301   0.058
    1UNL     C3    3   0.411  -0.260  -0.047
    1UNL     C4    4   0.392  -0.109  -0.089
    1UNL     O1    5   0.487  -0.027  -0.022
    1UNL     C5    6   0.249  -0.059  -0.077
    1UNL     C6    7   0.156  -0.174  -0.135
    1UNL     C7    8   0.155  -0.231   0.007
    1UNL     O2    9   0.036  -0.304   0.038
    1UNL     C8   10  -0.072  -0.238   0.096
    1UNL     O3   11  -0.151  -0.164   0.000
    1UNL     C9   12  -0.187  -0.236  -0.115
    1UNL    C10   13  -0.242  -0.143  -0.228
    1UNL     O4   14  -0.150  -0.036  -0.248
    1UNL    C11   15  -0.205   0.085  -0.210
    1UNL     O5   16  -0.240   0.076  -0.072
    1UNL    C12   17  -0.293   0.189  -0.003
    1UNL    C13   18  -0.255   0.166   0.144
    1UNL     O6   19  -0.305   0.032   0.174
    1UNL    C14   20  -0.265   0.331  -0.064
    1UNL     O7   21  -0.257   0.424   0.034
    1UNL    C15   22  -0.124   0.326  -0.138
    1UNL     O8   23  -0.112   0.455  -0.205
    1UNL    C16   24  -0.109   0.210  -0.240
    1UNL     O9   25   0.020   0.172  -0.240
    1UNL    C17   26  -0.277  -0.350  -0.076
    1UNL    O10   27  -0.226  -0.468  -0.126
    1UNL    C18   28  -0.299  -0.375   0.079
    1UNL    O11   29  -0.350  -0.504   0.099
    1UNL    C19   30  -0.159  -0.357   0.160
    1UNL    O12   31  -0.095  -0.480   0.171
    1UNL    C20   32   0.179  -0.082   0.065
    1UNL    C21   33   0.066   0.016   0.085
    1UNL    O13   34   0.108   0.150   0.040
    1UNL    C22   35   0.076   0.245   0.139
    1UNL    O14   36  -0.000   0.224   0.232
    1UNL    C23   37   0.124   0.378   0.116
    1UNL    C24   38   0.210   0.407   0.011
    1UNL    C25   39   0.247   0.538  -0.021
    1UNL    C26   40   0.215   0.637   0.069
    1UNL    C27   41   0.137   0.609   0.177
    1UNL    C28   42   0.091   0.478   0.201
    1UNL    C29   43   0.273  -0.109   0.182
    1UNL    O15   44   0.313  -0.028   0.259
    1UNL    O16   45   0.325  -0.239   0.179
    1UNL     H1   46   0.226  -0.493  -0.013
    1UNL     H2   47   0.221  -0.481   0.174
    1UNL     H3   48   0.377  -0.494   0.094
    1UNL     H4   49   0.409  -0.330  -0.129
    1UNL     H5   50   0.508  -0.272   0.009
    1UNL     H6   51   0.418  -0.101  -0.193
    1UNL     H7   52   0.461  -0.018   0.073
    1UNL     H8   53   0.235   0.049  -0.102
    1UNL     H9   54   0.059  -0.137  -0.163
    1UNL    H10   55   0.202  -0.239  -0.220
    1UNL    H11   56  -0.033  -0.180   0.185
    1UNL    H12   57  -0.100  -0.288  -0.158
    1UNL    H13   58  -0.332  -0.096  -0.186
    1UNL    H14   59  -0.268  -0.174  -0.335
    1UNL    H15   60  -0.299   0.098  -0.263
    1UNL    H16   61  -0.404   0.176  -0.000
    1UNL    H17   62  -0.314   0.227   0.206
    1UNL    H18   63  -0.148   0.160   0.164
    1UNL    H19   64  -0.264  -0.033   0.109
    1UNL    H20   65  -0.339   0.367  -0.135
    1UNL    H21   66  -0.340   0.442   0.084
    1UNL    H22   67  -0.040   0.319  -0.059
    1UNL    H23   68  -0.142   0.519  -0.129
    1UNL    H24   69  -0.128   0.263  -0.345
    1UNL    H25   70   0.043   0.148  -0.153
    1UNL    H26   71  -0.375  -0.333  -0.116
    1UNL    H27   72  -0.280  -0.542  -0.090
    1UNL    H28   73  -0.365  -0.291   0.126
    1UNL    H29   74  -0.281  -0.574   0.117
    1UNL    H30   75  -0.186  -0.318   0.258
    1UNL    H31   76  -0.021  -0.483   0.110
    1UNL    H32   77  -0.014  -0.020   0.025
    1UNL    H33   78   0.032   0.020   0.194
    1UNL    H34   79   0.249   0.325  -0.043
    1UNL    H35   80   0.305   0.564  -0.109
    1UNL    H36   81   0.246   0.740   0.038
    1UNL    H37   82   0.106   0.686   0.233
    1UNL    H38   83   0.030   0.456   0.293
   0.00000   0.00000   0.00000   0.00000   0.00000   0.00000   0.00000   0.00000   0.00000
Generated with MDTraj, t= 54.0
 83
    1UNL     C1    1   0.253  -0.446   0.068
    1UNL     C2    2   0.276  -0.302   0.043
    1UNL     C3    3   0.396  -0.271  -0.050
    1UNL     C4    4   0.399  -0.119  -0.085
    1UNL     O1    5   0.493  -0.045  -0.001
    1UNL     C5    6   0.256  -0.060  -0.083
    1UNL     C6    7   0.160  -0.163  -0.149
    1UNL     C7    8   0.148  -0.226  -0.004
    1UNL     O2    9   0.031  -0.311   0.025
    1UNL     C8   10  -0.073  -0.245   0.097
    1UNL     O3   11  -0.146  -0.161   0.006
    1UNL     C9   12  -0.197  -0.225  -0.108
    1UNL    C10   13  -0.269  -0.137  -0.206
    1UNL     O4   14  -0.180  -0.039  -0.259
    1UNL    C11   15  -0.205   0.085  -0.207
    1UNL     O5   16  -0.216   0.075  -0.065
    1UNL    C12   17  -0.294   0.185  -0.016
    1UNL    C13   18  -0.283   0.184   0.136
    1UNL     O6   19  -0.284   0.048   0.185
    1UNL    C14   20  -0.243   0.329  -0.077
    1UNL     O7   21  -0.236   0.424   0.013
    1UNL    C15   22  -0.105   0.307  -0.146
    1UNL     O8   23  -0.059   0.433  -0.192
    1UNL    C16   24  -0.095   0.197  -0.240
    1UNL     O9   25   0.028   0.134  -0.241
    1UNL    C17   26  -0.280  -0.352  -0.080
    1UNL    O10   27  -0.210  -0.465  -0.124
    1UNL    C18   28  -0.301  -0.369   0.079
    1UNL    O11   29  -0.345  -0.503   0.096
    1UNL    C19   30  -0.163  -0.357   0.164
    1UNL    O12   31  -0.097  -0.478   0.183
    1UNL    C20   32   0.177  -0.082   0.050
    1UNL    C21   33   0.071   0.020   0.077
    1UNL    O13   34   0.126   0.157   0.049
    1UNL    C22   35   0.104   0.238   0.157
    1UNL    O14   36   0.067   0.200   0.266
    1UNL    C23   37   0.117   0.384   0.126
    1UNL    C24   38   0.184   0.423   0.008
    1UNL    C25   39   0.207   0.556  -0.013
    1UNL    C26   40   0.155   0.651   0.079
    1UNL    C27   41   0.088   0.614   0.191
    1UNL    C28   42   0.066   0.479   0.214
    1UNL    C29   43   0.281  -0.094   0.162
    1UNL    O15   44   0.325  -0.009   0.231
    1UNL    O16   45   0.310  -0.227   0.169
    1UNL     H1   46   0.238  -0.505  -0.030
    1UNL     H2   47   0.156  -0.451   0.126
    1UNL     H3   48   0.332  -0.491   0.126
    1UNL     H4   49   0.377  -0.333  -0.140
    1UNL     H5   50   0.489  -0.302   0.002
    1UNL     H6   51   0.443  -0.111  -0.185
    1UNL     H7   52   0.468  -0.037   0.094
    1UNL     H8   53   0.243   0.046  -0.117
    1UNL     H9   54   0.065  -0.129  -0.186
    1UNL    H10   55   0.216  -0.233  -0.224
    1UNL    H11   56  -0.020  -0.190   0.179
    1UNL    H12   57  -0.113  -0.273  -0.157
    1UNL    H13   58  -0.354  -0.079  -0.164
    1UNL    H14   59  -0.308  -0.197  -0.297
    1UNL    H15   60  -0.301   0.111  -0.248
    1UNL    H16   61  -0.399   0.164  -0.048
    1UNL    H17   62  -0.353   0.237   0.191
    1UNL    H18   63  -0.182   0.214   0.165
    1UNL    H19   64  -0.250  -0.023   0.123
    1UNL    H20   65  -0.319   0.359  -0.151
    1UNL    H21   66  -0.325   0.431   0.055
    1UNL    H22   67  -0.028   0.273  -0.066
    1UNL    H23   68  -0.089   0.497  -0.127
    1UNL    H24   69  -0.096   0.246  -0.349
    1UNL    H25   70   0.060   0.121  -0.142
    1UNL    H26   71  -0.378  -0.353  -0.122
    1UNL    H27   72  -0.249  -0.547  -0.086
    1UNL    H28   73  -0.385  -0.301   0.127
    1UNL    H29   74  -0.358  -0.539   0.185
    1UNL    H30   75  -0.192  -0.319   0.265
    1UNL    H31   76  -0.060  -0.509   0.095
    1UNL    H32   77  -0.014   0.005   0.016
    1UNL    H33   78   0.040   0.008   0.185
    1UNL    H34   79   0.237   0.348  -0.054
    1UNL    H35   80   0.250   0.578  -0.110
    1UNL    H36   81   0.152   0.748   0.039
    1UNL    H37   82   0.044   0.688   0.252
    1UNL    H38   83   0.018   0.454   0.303
   0.00000   0.00000   0.00000   0.00000   0.00000   0.00000   0.00000   0.00000   0.00000
Generated with MDTraj, t= 55.0
 83
    1UNL     C1    1   0.252  -0.445   0.054
    1UNL     C2    2   0.282  -0.298   0.040
    1UNL     C3    3   0.402  -0.274  -0.060
    1UNL     C4    4   0.408  -0.129  -0.105
    1UNL     O1    5   0.508  -0.054  -0.034
    1UNL     C5    6   0.269  -0.065  -0.096
    1UNL     C6    7   0.156  -0.173  -0.144
    1UNL     C7    8   0.153  -0.228  -0.002
    1UNL     O2    9   0.038  -0.311   0.045
    1UNL     C8   10  -0.080  -0.237   0.093
    1UNL     O3   11  -0.159  -0.158   0.001
    1UNL     C9   12  -0.191  -0.234  -0.109
    1UNL    C10   13  -0.259  -0.143  -0.214
    1UNL     O4   14  -0.178  -0.038  -0.269
    1UNL    C11   15  -0.200   0.083  -0.204
    1UNL     O5   16  -0.230   0.079  -0.058
    1UNL    C12   17  -0.282   0.201  -0.008
    1UNL    C13   18  -0.240   0.197   0.140
    1UNL     O6   19  -0.302   0.083   0.196
    1UNL    C14   20  -0.225   0.337  -0.083
    1UNL     O7   21  -0.223   0.454  -0.011
    1UNL    C15   22  -0.084   0.307  -0.143
    1UNL     O8   23  -0.029   0.434  -0.199
    1UNL    C16   24  -0.082   0.185  -0.236
    1UNL     O9   25   0.034   0.116  -0.219
    1UNL    C17   26  -0.269  -0.368  -0.069
    1UNL    O10   27  -0.197  -0.482  -0.099
    1UNL    C18   28  -0.305  -0.362   0.084
    1UNL    O11   29  -0.364  -0.477   0.131
    1UNL    C19   30  -0.166  -0.352   0.157
    1UNL    O12   31  -0.100  -0.476   0.146
    1UNL    C20   32   0.190  -0.084   0.043
    1UNL    C21   33   0.070   0.013   0.074
    1UNL    O13   34   0.107   0.150   0.045
    1UNL    C22   35   0.103   0.232   0.154
    1UNL    O14   36   0.061   0.193   0.262
    1UNL    C23   37   0.116   0.383   0.128
    1UNL    C24   38   0.175   0.436   0.014
    1UNL    C25   39   0.169   0.573  -0.007
    1UNL    C26   40   0.100   0.652   0.084
    1UNL    C27   41   0.041   0.606   0.203
    1UNL    C28   42   0.057   0.469   0.227
    1UNL    C29   43   0.281  -0.108   0.165
    1UNL    O15   44   0.302  -0.024   0.249
    1UNL    O16   45   0.318  -0.238   0.165
    1UNL     H1   46   0.194  -0.489  -0.032
    1UNL     H2   47   0.197  -0.458   0.146
    1UNL     H3   48   0.344  -0.506   0.058
    1UNL     H4   49   0.393  -0.337  -0.154
    1UNL     H5   50   0.489  -0.305  -0.003
    1UNL     H6   51   0.440  -0.129  -0.212
    1UNL     H7   52   0.485  -0.025   0.056
    1UNL     H8   53   0.256   0.034  -0.148
    1UNL     H9   54   0.057  -0.133  -0.170
    1UNL    H10   55   0.185  -0.254  -0.215
    1UNL    H11   56  -0.037  -0.175   0.174
    1UNL    H12   57  -0.097  -0.266  -0.149
    1UNL    H13   58  -0.351  -0.102  -0.165
    1UNL    H14   59  -0.293  -0.199  -0.311
    1UNL    H15   60  -0.293   0.116  -0.247
    1UNL    H16   61  -0.389   0.200  -0.035
    1UNL    H17   62  -0.282   0.276   0.192
    1UNL    H18   63  -0.133   0.196   0.167
    1UNL    H19   64  -0.271   0.005   0.142
    1UNL    H20   65  -0.293   0.358  -0.168
    1UNL    H21   66  -0.299   0.470   0.049
    1UNL    H22   67  -0.019   0.289  -0.051
    1UNL    H23   68  -0.063   0.514  -0.149
    1UNL    H24   69  -0.085   0.229  -0.347
    1UNL    H25   70   0.060   0.128  -0.130
    1UNL    H26   71  -0.359  -0.374  -0.128
    1UNL    H27   72  -0.233  -0.573  -0.076
    1UNL    H28   73  -0.373  -0.273   0.123
    1UNL    H29   74  -0.300  -0.555   0.132
    1UNL    H30   75  -0.185  -0.337   0.269
    1UNL    H31   76  -0.050  -0.481   0.065
    1UNL    H32   77  -0.016  -0.012   0.020
    1UNL    H33   78   0.045   0.011   0.182
    1UNL    H34   79   0.222   0.366  -0.051
    1UNL    H35   80   0.219   0.627  -0.086
    1UNL    H36   81   0.081   0.756   0.057
    1UNL    H37   82  -0.011   0.685   0.279
    1UNL    H38   83   0.019   0.423   0.322
   0.00000   0.00000   0.00000   0.00000   0.00000   0.00000   0.00000   0.00000   0.00000
Generated with MDTraj, t= 56.0
 83
    1UNL     C1    1   0.283  -0.467   0.059
    1UNL     C2    2   0.303  -0.315   0.029
    1UNL     C3    3   0.401  -0.268  -0.088
    1UNL     C4    4   0.395  -0.113  -0.109
    1UNL     O1    5   0.500  -0.054  -0.032
    1UNL     C5    6   0.248  -0.065  -0.087
    1UNL     C6    7   0.145  -0.169  -0.137
    1UNL     C7    8   0.158  -0.243  -0.001
    1UNL     O2    9   0.038  -0.318   0.034
    1UNL     C8   10  -0.063  -0.251   0.104
    1UNL     O3   11  -0.122  -0.155   0.022
    1UNL     C9   12  -0.183  -0.228  -0.094
    1UNL    C10   13  -0.253  -0.133  -0.196
    1UNL     O4   14  -0.163  -0.037  -0.249
    1UNL    C11   15  -0.198   0.092  -0.219
    1UNL     O5   16  -0.226   0.093  -0.075
    1UNL    C12   17  -0.280   0.214  -0.026
    1UNL    C13   18  -0.265   0.217   0.127
    1UNL     O6   19  -0.254   0.083   0.181
    1UNL    C14   20  -0.231   0.342  -0.103
    1UNL     O7   21  -0.213   0.449  -0.020
    1UNL    C15   22  -0.092   0.316  -0.164
    1UNL     O8   23  -0.045   0.430  -0.243
    1UNL    C16   24  -0.083   0.190  -0.253
    1UNL     O9   25   0.042   0.138  -0.239
    1UNL    C17   26  -0.279  -0.346  -0.058
    1UNL    O10   27  -0.235  -0.466  -0.100
    1UNL    C18   28  -0.304  -0.351   0.098
    1UNL    O11   29  -0.372  -0.462   0.125
    1UNL    C19   30  -0.164  -0.352   0.170
    1UNL    O12   31  -0.118  -0.482   0.166
    1UNL    C20   32   0.196  -0.099   0.058
    1UNL    C21   33   0.092   0.006   0.102
    1UNL    O13   34   0.124   0.140   0.075
    1UNL    C22   35   0.084   0.229   0.169
    1UNL    O14   36   0.013   0.189   0.261
    1UNL    C23   37   0.090   0.375   0.140
    1UNL    C24   38   0.152   0.435   0.029
    1UNL    C25   39   0.160   0.571   0.009
    1UNL    C26   40   0.092   0.652   0.093
    1UNL    C27   41   0.021   0.598   0.207
    1UNL    C28   42   0.022   0.464   0.230
    1UNL    C29   43   0.302  -0.132   0.162
    1UNL    O15   44   0.339  -0.048   0.243
    1UNL    O16   45   0.348  -0.255   0.147
    1UNL     H1   46   0.304  -0.518  -0.032
    1UNL     H2   47   0.186  -0.488   0.103
    1UNL     H3   48   0.361  -0.510   0.131
    1UNL     H4   49   0.368  -0.335  -0.174
    1UNL     H5   50   0.507  -0.284  -0.069
    1UNL     H6   51   0.428  -0.096  -0.216
    1UNL     H7   52   0.488  -0.066   0.063
    1UNL     H8   53   0.225   0.041  -0.118
    1UNL     H9   54   0.040  -0.129  -0.154
    1UNL    H10   55   0.181  -0.216  -0.227
    1UNL    H11   56  -0.012  -0.201   0.188
    1UNL    H12   57  -0.098  -0.278  -0.136
    1UNL    H13   58  -0.328  -0.081  -0.135
    1UNL    H14   59  -0.311  -0.198  -0.270
    1UNL    H15   60  -0.287   0.106  -0.283
    1UNL    H16   61  -0.383   0.212  -0.060
    1UNL    H17   62  -0.336   0.279   0.175
    1UNL    H18   63  -0.168   0.260   0.158
    1UNL    H19   64  -0.203   0.023   0.120
    1UNL    H20   65  -0.307   0.366  -0.181
    1UNL    H21   66  -0.283   0.463   0.047
    1UNL    H22   67  -0.023   0.302  -0.076
    1UNL    H23   68  -0.056   0.520  -0.199
    1UNL    H24   69  -0.092   0.226  -0.367
    1UNL    H25   70   0.073   0.141  -0.138
    1UNL    H26   71  -0.378  -0.323  -0.100
    1UNL    H27   72  -0.291  -0.539  -0.075
    1UNL    H28   73  -0.363  -0.256   0.133
    1UNL    H29   74  -0.324  -0.518   0.190
    1UNL    H30   75  -0.181  -0.328   0.281
    1UNL    H31   76  -0.099  -0.509   0.071
    1UNL    H32   77   0.001  -0.020   0.059
    1UNL    H33   78   0.084   0.003   0.213
    1UNL    H34   79   0.210   0.367  -0.032
    1UNL    H35   80   0.222   0.604  -0.071
    1UNL    H36   81   0.103   0.761   0.092
    1UNL    H37   82  -0.039   0.655   0.271
    1UNL    H38   83  -0.011   0.425   0.323
   0.00000   0.00000   0.00000   0.00000   0.00000   0.00000   0.00000   0.00000   0.00000
Generated with MDTraj, t= 57.0
 83
    1UNL     C1    1   0.270  -0.464   0.018
    1UNL     C2    2   0.298  -0.309   0.016
    1UNL     C3    3   0.397  -0.270  -0.096
    1UNL     C4    4   0.397  -0.119  -0.115
    1UNL     O1    5   0.504  -0.049  -0.053
    1UNL     C5    6   0.256  -0.059  -0.080
    1UNL     C6    7   0.146  -0.155  -0.136
    1UNL     C7    8   0.161  -0.229  -0.002
    1UNL     O2    9   0.052  -0.305   0.057
    1UNL     C8   10  -0.054  -0.240   0.116
    1UNL     O3   11  -0.127  -0.160   0.017
    1UNL     C9   12  -0.182  -0.228  -0.094
    1UNL    C10   13  -0.235  -0.131  -0.195
    1UNL     O4   14  -0.139  -0.043  -0.253
    1UNL    C11   15  -0.168   0.091  -0.215
    1UNL     O5   16  -0.194   0.097  -0.074
    1UNL    C12   17  -0.273   0.207  -0.041
    1UNL    C13   18  -0.268   0.211   0.120
    1UNL     O6   19  -0.317   0.088   0.167
    1UNL    C14   20  -0.234   0.337  -0.117
    1UNL     O7   21  -0.250   0.453  -0.038
    1UNL    C15   22  -0.088   0.334  -0.178
    1UNL     O8   23  -0.077   0.444  -0.265
    1UNL    C16   24  -0.054   0.196  -0.247
    1UNL     O9   25   0.076   0.170  -0.202
    1UNL    C17   26  -0.285  -0.335  -0.045
    1UNL    O10   27  -0.275  -0.468  -0.088
    1UNL    C18   28  -0.301  -0.338   0.116
    1UNL    O11   29  -0.379  -0.444   0.159
    1UNL    C19   30  -0.153  -0.346   0.175
    1UNL    O12   31  -0.110  -0.474   0.161
    1UNL    C20   32   0.205  -0.092   0.062
    1UNL    C21   33   0.103   0.006   0.115
    1UNL    O13   34   0.128   0.132   0.083
    1UNL    C22   35   0.060   0.214   0.170
    1UNL    O14   36  -0.012   0.163   0.254
    1UNL    C23   37   0.068   0.359   0.148
    1UNL    C24   38   0.153   0.404   0.051
    1UNL    C25   39   0.174   0.541   0.029
    1UNL    C26   40   0.109   0.638   0.105
    1UNL    C27   41   0.011   0.589   0.194
    1UNL    C28   42  -0.002   0.451   0.217
    1UNL    C29   43   0.315  -0.139   0.160
    1UNL    O15   44   0.376  -0.064   0.235
    1UNL    O16   45   0.349  -0.267   0.143
    1UNL     H1   46   0.184  -0.495  -0.035
    1UNL     H2   47   0.264  -0.488   0.127
    1UNL     H3   48   0.354  -0.525  -0.023
    1UNL     H4   49   0.377  -0.326  -0.193
    1UNL     H5   50   0.495  -0.306  -0.063
    1UNL     H6   51   0.405  -0.099  -0.226
    1UNL     H7   52   0.491  -0.030   0.044
    1UNL     H8   53   0.248   0.052  -0.099
    1UNL     H9   54   0.042  -0.118  -0.165
    1UNL    H10   55   0.182  -0.220  -0.209
    1UNL    H11   56  -0.025  -0.170   0.192
    1UNL    H12   57  -0.097  -0.281  -0.132
    1UNL    H13   58  -0.317  -0.087  -0.140
    1UNL    H14   59  -0.278  -0.192  -0.278
    1UNL    H15   60  -0.252   0.119  -0.285
    1UNL    H16   61  -0.375   0.179  -0.067
    1UNL    H17   62  -0.329   0.288   0.166
    1UNL    H18   63  -0.168   0.227   0.161
    1UNL    H19   64  -0.262   0.011   0.139
    1UNL    H20   65  -0.308   0.337  -0.200
    1UNL    H21   66  -0.335   0.441   0.010
    1UNL    H22   67  -0.012   0.348  -0.100
    1UNL    H23   68  -0.108   0.521  -0.221
    1UNL    H24   69  -0.041   0.220  -0.364
    1UNL    H25   70   0.077   0.174  -0.109
    1UNL    H26   71  -0.386  -0.297  -0.079
    1UNL    H27   72  -0.335  -0.524  -0.032
    1UNL    H28   73  -0.357  -0.239   0.145
    1UNL    H29   74  -0.330  -0.510   0.218
    1UNL    H30   75  -0.169  -0.329   0.288
    1UNL    H31   76  -0.067  -0.490   0.075
    1UNL    H32   77   0.007  -0.010   0.073
    1UNL    H33   78   0.101  -0.006   0.226
    1UNL    H34   79   0.214   0.331  -0.000
    1UNL    H35   80   0.247   0.568  -0.049
    1UNL    H36   81   0.113   0.740   0.076
    1UNL    H37   82  -0.043   0.668   0.241
    1UNL    H38   83  -0.070   0.410   0.290
   0.00000   0.00000   0.00000   0.00000   0.00000   0.00000   0.00000   0.00000   0.00000
Generated with MDTraj, t= 58.0
 83
    1UNL     C1    1   0.284  -0.474   0.001
    1UNL     C2    2   0.290  -0.322  -0.007
    1UNL     C3    3   0.387  -0.273  -0.118
    1UNL     C4    4   0.395  -0.122  -0.132
    1UNL     O1    5   0.503  -0.065  -0.059
    1UNL     C5    6   0.258  -0.062  -0.082
    1UNL     C6    7   0.143  -0.155  -0.133
    1UNL     C7    8   0.158  -0.238  -0.007
    1UNL     O2    9   0.053  -0.314   0.057
    1UNL     C8   10  -0.048  -0.237   0.124
    1UNL     O3   11  -0.115  -0.146   0.031
    1UNL     C9   12  -0.164  -0.220  -0.078
    1UNL    C10   13  -0.187  -0.148  -0.205
    1UNL     O4   14  -0.097  -0.046  -0.236
    1UNL    C11   15  -0.151   0.081  -0.188
    1UNL     O5   16  -0.196   0.094  -0.061
    1UNL    C12   17  -0.301   0.193  -0.057
    1UNL    C13   18  -0.333   0.217   0.100
    1UNL     O6   19  -0.353   0.094   0.158
    1UNL    C14   20  -0.263   0.325  -0.129
    1UNL     O7   21  -0.285   0.444  -0.063
    1UNL    C15   22  -0.112   0.332  -0.176
    1UNL     O8   23  -0.088   0.432  -0.272
    1UNL    C16   24  -0.053   0.195  -0.218
    1UNL     O9   25   0.075   0.158  -0.167
    1UNL    C17   26  -0.288  -0.305  -0.032
    1UNL    O10   27  -0.279  -0.436  -0.085
    1UNL    C18   28  -0.302  -0.313   0.123
    1UNL    O11   29  -0.387  -0.415   0.168
    1UNL    C19   30  -0.156  -0.341   0.174
    1UNL    O12   31  -0.118  -0.467   0.141
    1UNL    C20   32   0.210  -0.104   0.067
    1UNL    C21   33   0.114  -0.001   0.132
    1UNL    O13   34   0.156   0.125   0.115
    1UNL    C22   35   0.067   0.210   0.178
    1UNL    O14   36  -0.031   0.172   0.244
    1UNL    C23   37   0.087   0.360   0.164
    1UNL    C24   38   0.192   0.408   0.087
    1UNL    C25   39   0.199   0.543   0.054
    1UNL    C26   40   0.103   0.638   0.098
    1UNL    C27   41   0.003   0.589   0.173
    1UNL    C28   42  -0.006   0.452   0.206
    1UNL    C29   43   0.329  -0.136   0.147
    1UNL    O15   44   0.393  -0.060   0.218
    1UNL    O16   45   0.361  -0.270   0.118
    1UNL     H1   46   0.291  -0.511  -0.101
    1UNL     H2   47   0.191  -0.505   0.058
    1UNL     H3   48   0.367  -0.511   0.051
    1UNL     H4   49   0.353  -0.317  -0.215
    1UNL     H5   50   0.488  -0.318  -0.103
    1UNL     H6   51   0.407  -0.096  -0.240
    1UNL     H7   52   0.484  -0.047   0.035
    1UNL     H8   53   0.234   0.044  -0.107
    1UNL     H9   54   0.052  -0.097  -0.148
    1UNL    H10   55   0.169  -0.206  -0.223
    1UNL    H11   56  -0.005  -0.178   0.198
    1UNL    H12   57  -0.082  -0.295  -0.091
    1UNL    H13   58  -0.281  -0.102  -0.199
    1UNL    H14   59  -0.195  -0.222  -0.284
    1UNL    H15   60  -0.234   0.090  -0.266
    1UNL    H16   61  -0.391   0.154  -0.102
    1UNL    H17   62  -0.426   0.275   0.118
    1UNL    H18   63  -0.256   0.277   0.153
    1UNL    H19   64  -0.275   0.037   0.137
    1UNL    H20   65  -0.314   0.342  -0.225
    1UNL    H21   66  -0.373   0.457  -0.020
    1UNL    H22   67  -0.051   0.370  -0.093
    1UNL    H23   68  -0.147   0.502  -0.243
    1UNL    H24   69  -0.035   0.208  -0.336
    1UNL    H25   70   0.070   0.158  -0.063
    1UNL    H26   71  -0.382  -0.256  -0.077
    1UNL    H27   72  -0.354  -0.490  -0.048
    1UNL    H28   73  -0.334  -0.213   0.174
    1UNL    H29   74  -0.340  -0.499   0.179
    1UNL    H30   75  -0.157  -0.339   0.289
    1UNL    H31   76  -0.096  -0.471   0.047
    1UNL    H32   77   0.017  -0.002   0.087
    1UNL    H33   78   0.105  -0.014   0.242
    1UNL    H34   79   0.272   0.344   0.056
    1UNL    H35   80   0.274   0.568  -0.017
    1UNL    H36   81   0.109   0.733   0.043
    1UNL    H37   82  -0.093   0.640   0.210
    1UNL    H38   83  -0.089   0.417   0.266
   0.00000   0.00000   0.00000   0.00000   0.00000   0.00000   0.00000   0.00000   0.00000
Generated with MDTraj, t= 59.0
 83
    1UNL     C1    1   0.281  -0.469   0.014
    1UNL     C2    2   0.317  -0.322   0.012
    1UNL     C3    3   0.391  -0.274  -0.122
    1UNL     C4    4   0.391  -0.122  -0.147
    1UNL     O1    5   0.510  -0.056  -0.092
    1UNL     C5    6   0.260  -0.063  -0.083
    1UNL     C6    7   0.133  -0.150  -0.108
    1UNL     C7    8   0.174  -0.244   0.016
    1UNL     O2    9   0.068  -0.320   0.076
    1UNL     C8   10  -0.048  -0.250   0.116
    1UNL     O3   11  -0.097  -0.166   0.013
    1UNL     C9   12  -0.173  -0.235  -0.088
    1UNL    C10   13  -0.209  -0.136  -0.209
    1UNL     O4   14  -0.107  -0.038  -0.239
    1UNL    C11   15  -0.165   0.093  -0.215
    1UNL     O5   16  -0.228   0.092  -0.095
    1UNL    C12   17  -0.319   0.204  -0.072
    1UNL    C13   18  -0.313   0.214   0.078
    1UNL     O6   19  -0.341   0.082   0.132
    1UNL    C14   20  -0.283   0.332  -0.141
    1UNL     O7   21  -0.329   0.453  -0.082
    1UNL    C15   22  -0.125   0.341  -0.156
    1UNL     O8   23  -0.084   0.459  -0.227
    1UNL    C16   24  -0.055   0.210  -0.218
    1UNL     O9   25   0.061   0.164  -0.141
    1UNL    C17   26  -0.301  -0.311  -0.024
    1UNL    O10   27  -0.303  -0.443  -0.075
    1UNL    C18   28  -0.301  -0.307   0.128
    1UNL    O11   29  -0.393  -0.401   0.180
    1UNL    C19   30  -0.161  -0.348   0.182
    1UNL    O12   31  -0.140  -0.485   0.150
    1UNL    C20   32   0.236  -0.102   0.075
    1UNL    C21   33   0.137  -0.003   0.151
    1UNL    O13   34   0.168   0.127   0.128
    1UNL    C22   35   0.069   0.213   0.164
    1UNL    O14   36  -0.037   0.166   0.209
    1UNL    C23   37   0.082   0.366   0.141
    1UNL    C24   38   0.206   0.415   0.106
    1UNL    C25   39   0.227   0.549   0.083
    1UNL    C26   40   0.118   0.635   0.110
    1UNL    C27   41   0.001   0.590   0.157
    1UNL    C28   42  -0.022   0.447   0.173
    1UNL    C29   43   0.360  -0.151   0.156
    1UNL    O15   44   0.409  -0.079   0.237
    1UNL    O16   45   0.403  -0.278   0.116
    1UNL     H1   46   0.188  -0.477  -0.049
    1UNL     H2   47   0.266  -0.495   0.115
    1UNL     H3   48   0.352  -0.531  -0.032
    1UNL     H4   49   0.351  -0.334  -0.205
    1UNL     H5   50   0.500  -0.306  -0.118
    1UNL     H6   51   0.399  -0.096  -0.254
    1UNL     H7   52   0.519  -0.077   0.003
    1UNL     H8   53   0.243   0.048  -0.098
    1UNL     H9   54   0.048  -0.091  -0.099
    1UNL    H10   55   0.122  -0.202  -0.204
    1UNL    H11   56  -0.013  -0.187   0.188
    1UNL    H12   57  -0.098  -0.312  -0.127
    1UNL    H13   58  -0.293  -0.082  -0.182
    1UNL    H14   59  -0.234  -0.175  -0.305
    1UNL    H15   60  -0.245   0.100  -0.295
    1UNL    H16   61  -0.417   0.166  -0.107
    1UNL    H17   62  -0.376   0.295   0.124
    1UNL    H18   63  -0.210   0.243   0.113
    1UNL    H19   64  -0.277   0.024   0.085
    1UNL    H20   65  -0.333   0.327  -0.238
    1UNL    H21   66  -0.422   0.437  -0.055
    1UNL    H22   67  -0.080   0.355  -0.058
    1UNL    H23   68  -0.154   0.528  -0.204
    1UNL    H24   69  -0.010   0.238  -0.326
    1UNL    H25   70   0.038   0.141  -0.054
    1UNL    H26   71  -0.393  -0.259  -0.072
    1UNL    H27   72  -0.375  -0.490  -0.032
    1UNL    H28   73  -0.335  -0.209   0.176
    1UNL    H29   74  -0.358  -0.494   0.187
    1UNL    H30   75  -0.155  -0.349   0.295
    1UNL    H31   76  -0.125  -0.496   0.051
    1UNL    H32   77   0.036  -0.013   0.123
    1UNL    H33   78   0.146  -0.008   0.263
    1UNL    H34   79   0.282   0.339   0.086
    1UNL    H35   80   0.321   0.598   0.050
    1UNL    H36   81   0.130   0.744   0.109
    1UNL    H37   82  -0.080   0.650   0.179
    1UNL    H38   83  -0.114   0.403   0.214
   0.00000   0.00000   0.00000   0.00000   0.00000   0.00000   0.00000   0.00000   0.00000
Generated with MDTraj, t= 60.0
 83
    1UNL     C1    1   0.269  -0.466   0.018
    1UNL     C2    2   0.315  -0.317   0.006
    1UNL     C3    3   0.395  -0.272  -0.120
    1UNL     C4    4   0.391  -0.116  -0.140
    1UNL     O1    5   0.505  -0.059  -0.076
    1UNL     C5    6   0.260  -0.055  -0.080
    1UNL     C6    7   0.138  -0.145  -0.112
    1UNL     C7    8   0.175  -0.230   0.018
    1UNL     O2    9   0.074  -0.295   0.093
    1UNL     C8   10  -0.047  -0.228   0.119
    1UNL     O3   11  -0.108  -0.143   0.020
    1UNL     C9   12  -0.165  -0.223  -0.084
    1UNL    C10   13  -0.212  -0.146  -0.215
    1UNL     O4   14  -0.121  -0.042  -0.246
    1UNL    C11   15  -0.187   0.078  -0.220
    1UNL     O5   16  -0.271   0.082  -0.102
    1UNL    C12   17  -0.343   0.204  -0.071
    1UNL    C13   18  -0.334   0.220   0.086
    1UNL     O6   19  -0.332   0.092   0.144
    1UNL    C14   20  -0.285   0.318  -0.149
    1UNL     O7   21  -0.338   0.444  -0.094
    1UNL    C15   22  -0.130   0.311  -0.129
    1UNL     O8   23  -0.076   0.424  -0.194
    1UNL    C16   24  -0.074   0.183  -0.201
    1UNL     O9   25   0.032   0.133  -0.137
    1UNL    C17   26  -0.298  -0.293  -0.028
    1UNL    O10   27  -0.289  -0.422  -0.085
    1UNL    C18   28  -0.299  -0.298   0.124
    1UNL    O11   29  -0.386  -0.407   0.164
    1UNL    C19   30  -0.155  -0.332   0.176
    1UNL    O12   31  -0.122  -0.461   0.131
    1UNL    C20   32   0.240  -0.096   0.071
    1UNL    C21   33   0.146  -0.007   0.154
    1UNL    O13   34   0.179   0.124   0.159
    1UNL    C22   35   0.074   0.211   0.147
    1UNL    O14   36  -0.036   0.162   0.128
    1UNL    C23   37   0.099   0.353   0.143
    1UNL    C24   38   0.226   0.402   0.116
    1UNL    C25   39   0.245   0.538   0.100
    1UNL    C26   40   0.140   0.626   0.116
    1UNL    C27   41   0.016   0.575   0.157
    1UNL    C28   42  -0.002   0.442   0.164
    1UNL    C29   43   0.361  -0.142   0.157
    1UNL    O15   44   0.418  -0.063   0.225
    1UNL    O16   45   0.394  -0.272   0.121
    1UNL     H1   46   0.257  -0.512  -0.078
    1UNL     H2   47   0.191  -0.479   0.085
    1UNL     H3   48   0.351  -0.524   0.062
    1UNL     H4   49   0.367  -0.330  -0.208
    1UNL     H5   50   0.503  -0.302  -0.094
    1UNL     H6   51   0.401  -0.082  -0.243
    1UNL     H7   52   0.490  -0.050   0.022
    1UNL     H8   53   0.240   0.059  -0.087
    1UNL     H9   54   0.040  -0.106  -0.117
    1UNL    H10   55   0.150  -0.204  -0.203
    1UNL    H11   56  -0.025  -0.165   0.195
    1UNL    H12   57  -0.090  -0.305  -0.110
    1UNL    H13   58  -0.307  -0.100  -0.211
    1UNL    H14   59  -0.226  -0.209  -0.300
    1UNL    H15   60  -0.264   0.096  -0.300
    1UNL    H16   61  -0.445   0.178  -0.108
    1UNL    H17   62  -0.423   0.279   0.127
    1UNL    H18   63  -0.243   0.278   0.114
    1UNL    H19   64  -0.267   0.037   0.094
    1UNL    H20   65  -0.312   0.322  -0.255
    1UNL    H21   66  -0.435   0.441  -0.082
    1UNL    H22   67  -0.098   0.315  -0.027
    1UNL    H23   68  -0.132   0.501  -0.174
    1UNL    H24   69  -0.038   0.218  -0.309
    1UNL    H25   70   0.026   0.145  -0.041
    1UNL    H26   71  -0.389  -0.245  -0.081
    1UNL    H27   72  -0.367  -0.472  -0.044
    1UNL    H28   73  -0.331  -0.203   0.176
    1UNL    H29   74  -0.331  -0.491   0.166
    1UNL    H30   75  -0.149  -0.341   0.287
    1UNL    H31   76  -0.099  -0.457   0.035
    1UNL    H32   77   0.051  -0.011   0.106
    1UNL    H33   78   0.138  -0.046   0.260
    1UNL    H34   79   0.310   0.340   0.098
    1UNL    H35   80   0.343   0.569   0.080
    1UNL    H36   81   0.149   0.731   0.130
    1UNL    H37   82  -0.067   0.639   0.192
    1UNL    H38   83  -0.104   0.407   0.183
   0.00000   0.00000   0.00000   0.00000   0.00000   0.00000   0.00000   0.00000   0.00000
Generated with MDTraj, t= 61.0
 83
    1UNL     C1    1   0.273  -0.452   0.004
    1UNL     C2    2   0.299  -0.304   0.004
    1UNL     C3    3   0.395  -0.270  -0.111
    1UNL     C4    4   0.393  -0.115  -0.119
    1UNL     O1    5   0.509  -0.051  -0.079
    1UNL     C5    6   0.266  -0.045  -0.061
    1UNL     C6    7   0.142  -0.123  -0.108
    1UNL     C7    8   0.168  -0.218   0.016
    1UNL     O2    9   0.059  -0.292   0.065
    1UNL     C8   10  -0.055  -0.226   0.110
    1UNL     O3   11  -0.130  -0.149   0.009
    1UNL     C9   12  -0.191  -0.228  -0.089
    1UNL    C10   13  -0.220  -0.162  -0.225
    1UNL     O4   14  -0.128  -0.059  -0.265
    1UNL    C11   15  -0.188   0.070  -0.237
    1UNL     O5   16  -0.257   0.069  -0.107
    1UNL    C12   17  -0.334   0.186  -0.075
    1UNL    C13   18  -0.342   0.188   0.078
    1UNL     O6   19  -0.352   0.063   0.119
    1UNL    C14   20  -0.287   0.314  -0.138
    1UNL     O7   21  -0.328   0.439  -0.068
    1UNL    C15   22  -0.136   0.311  -0.151
    1UNL     O8   23  -0.085   0.429  -0.201
    1UNL    C16   24  -0.080   0.184  -0.214
    1UNL     O9   25   0.026   0.131  -0.144
    1UNL    C17   26  -0.309  -0.315  -0.030
    1UNL    O10   27  -0.300  -0.452  -0.077
    1UNL    C18   28  -0.302  -0.310   0.122
    1UNL    O11   29  -0.382  -0.422   0.177
    1UNL    C19   30  -0.158  -0.332   0.170
    1UNL    O12   31  -0.114  -0.462   0.150
    1UNL    C20   32   0.233  -0.090   0.088
    1UNL    C21   33   0.135   0.006   0.156
    1UNL    O13   34   0.181   0.134   0.162
    1UNL    C22   35   0.076   0.224   0.148
    1UNL    O14   36  -0.041   0.193   0.141
    1UNL    C23   37   0.112   0.367   0.153
    1UNL    C24   38   0.242   0.405   0.114
    1UNL    C25   39   0.273   0.545   0.110
    1UNL    C26   40   0.182   0.639   0.134
    1UNL    C27   41   0.052   0.602   0.171
    1UNL    C28   42   0.021   0.473   0.169
    1UNL    C29   43   0.359  -0.136   0.157
    1UNL    O15   44   0.432  -0.067   0.219
    1UNL    O16   45   0.375  -0.272   0.129
    1UNL     H1   46   0.210  -0.487  -0.069
    1UNL     H2   47   0.255  -0.484   0.103
    1UNL     H3   48   0.370  -0.502  -0.018
    1UNL     H4   49   0.360  -0.316  -0.204
    1UNL     H5   50   0.498  -0.309  -0.081
    1UNL     H6   51   0.395  -0.089  -0.224
    1UNL     H7   52   0.513  -0.044   0.019
    1UNL     H8   53   0.270   0.070  -0.070
    1UNL     H9   54   0.046  -0.067  -0.109
    1UNL    H10   55   0.158  -0.168  -0.201
    1UNL    H11   56  -0.029  -0.164   0.188
    1UNL    H12   57  -0.106  -0.300  -0.111
    1UNL    H13   58  -0.322  -0.128  -0.230
    1UNL    H14   59  -0.221  -0.244  -0.299
    1UNL    H15   60  -0.268   0.101  -0.305
    1UNL    H16   61  -0.434   0.158  -0.117
    1UNL    H17   62  -0.430   0.252   0.112
    1UNL    H18   63  -0.246   0.224   0.121
    1UNL    H19   64  -0.284   0.007   0.072
    1UNL    H20   65  -0.333   0.333  -0.236
    1UNL    H21   66  -0.419   0.441  -0.030
    1UNL    H22   67  -0.104   0.295  -0.051
    1UNL    H23   68  -0.129   0.508  -0.163
    1UNL    H24   69  -0.027   0.201  -0.319
    1UNL    H25   70   0.006   0.142  -0.042
    1UNL    H26   71  -0.408  -0.279  -0.076
    1UNL    H27   72  -0.360  -0.494  -0.015
    1UNL    H28   73  -0.326  -0.208   0.153
    1UNL    H29   74  -0.319  -0.495   0.190
    1UNL    H30   75  -0.167  -0.327   0.279
    1UNL    H31   76  -0.084  -0.470   0.060
    1UNL    H32   77   0.044  -0.002   0.101
    1UNL    H33   78   0.119  -0.022   0.265
    1UNL    H34   79   0.313   0.325   0.085
    1UNL    H35   80   0.377   0.578   0.086
    1UNL    H36   81   0.207   0.747   0.126
    1UNL    H37   82  -0.010   0.680   0.202
    1UNL    H38   83  -0.075   0.437   0.181
   0.00000   0.00000   0.00000   0.00000   0.00000   0.00000   0.00000   0.00000   0.00000
Generated with MDTraj, t= 62.0
 83
    1UNL     C1    1   0.274  -0.449  -0.012
    1UNL     C2    2   0.292  -0.301  -0.003
    1UNL     C3    3   0.382  -0.250  -0.119
    1UNL     C4    4   0.380  -0.093  -0.115
    1UNL     O1    5   0.488  -0.040  -0.045
    1UNL     C5    6   0.244  -0.035  -0.075
    1UNL     C6    7   0.118  -0.125  -0.116
    1UNL     C7    8   0.158  -0.215   0.007
    1UNL     O2    9   0.052  -0.285   0.078
    1UNL     C8   10  -0.069  -0.227   0.117
    1UNL     O3   11  -0.127  -0.152   0.008
    1UNL     C9   12  -0.177  -0.241  -0.098
    1UNL    C10   13  -0.212  -0.172  -0.231
    1UNL     O4   14  -0.124  -0.065  -0.265
    1UNL    C11   15  -0.183   0.060  -0.236
    1UNL     O5   16  -0.255   0.055  -0.108
    1UNL    C12   17  -0.340   0.169  -0.068
    1UNL    C13   18  -0.325   0.153   0.087
    1UNL     O6   19  -0.347   0.019   0.122
    1UNL    C14   20  -0.288   0.306  -0.123
    1UNL     O7   21  -0.315   0.427  -0.052
    1UNL    C15   22  -0.135   0.310  -0.158
    1UNL     O8   23  -0.109   0.419  -0.242
    1UNL    C16   24  -0.074   0.173  -0.220
    1UNL     O9   25   0.030   0.125  -0.139
    1UNL    C17   26  -0.296  -0.332  -0.038
    1UNL    O10   27  -0.282  -0.469  -0.074
    1UNL    C18   28  -0.307  -0.318   0.112
    1UNL    O11   29  -0.392  -0.429   0.162
    1UNL    C19   30  -0.168  -0.332   0.180
    1UNL    O12   31  -0.121  -0.463   0.166
    1UNL    C20   32   0.214  -0.087   0.071
    1UNL    C21   33   0.126   0.024   0.151
    1UNL    O13   34   0.189   0.148   0.132
    1UNL    C22   35   0.095   0.242   0.143
    1UNL    O14   36  -0.024   0.222   0.156
    1UNL    C23   37   0.138   0.387   0.153
    1UNL    C24   38   0.271   0.423   0.126
    1UNL    C25   39   0.311   0.552   0.120
    1UNL    C26   40   0.219   0.650   0.156
    1UNL    C27   41   0.086   0.617   0.173
    1UNL    C28   42   0.043   0.491   0.177
    1UNL    C29   43   0.333  -0.134   0.153
    1UNL    O15   44   0.382  -0.067   0.242
    1UNL    O16   45   0.361  -0.260   0.116
    1UNL     H1   46   0.220  -0.473  -0.098
    1UNL     H2   47   0.217  -0.469   0.078
    1UNL     H3   48   0.357  -0.512  -0.005
    1UNL     H4   49   0.339  -0.280  -0.218
    1UNL     H5   50   0.488  -0.286  -0.110
    1UNL     H6   51   0.396  -0.059  -0.218
    1UNL     H7   52   0.488  -0.063   0.051
    1UNL     H8   53   0.226   0.079  -0.083
    1UNL     H9   54   0.023  -0.068  -0.104
    1UNL    H10   55   0.125  -0.167  -0.210
    1UNL    H11   56  -0.045  -0.152   0.190
    1UNL    H12   57  -0.081  -0.294  -0.120
    1UNL    H13   58  -0.315  -0.133  -0.233
    1UNL    H14   59  -0.212  -0.255  -0.310
    1UNL    H15   60  -0.256   0.098  -0.307
    1UNL    H16   61  -0.442   0.135  -0.102
    1UNL    H17   62  -0.402   0.209   0.147
    1UNL    H18   63  -0.223   0.178   0.123
    1UNL    H19   64  -0.267  -0.029   0.087
    1UNL    H20   65  -0.352   0.312  -0.215
    1UNL    H21   66  -0.401   0.412  -0.006
    1UNL    H22   67  -0.088   0.330  -0.066
    1UNL    H23   68  -0.159   0.502  -0.207
    1UNL    H24   69  -0.022   0.198  -0.324
    1UNL    H25   70   0.001   0.154  -0.054
    1UNL    H26   71  -0.393  -0.302  -0.090
    1UNL    H27   72  -0.363  -0.510  -0.030
    1UNL    H28   73  -0.351  -0.222   0.129
    1UNL    H29   74  -0.336  -0.488   0.220
    1UNL    H30   75  -0.183  -0.324   0.286
    1UNL    H31   76  -0.137  -0.501   0.072
    1UNL    H32   77   0.031   0.035   0.104
    1UNL    H33   78   0.117  -0.002   0.260
    1UNL    H34   79   0.337   0.349   0.089
    1UNL    H35   80   0.408   0.579   0.092
    1UNL    H36   81   0.242   0.757   0.155
    1UNL    H37   82   0.015   0.705   0.185
    1UNL    H38   83  -0.068   0.469   0.201
   0.00000   0.00000   0.00000   0.00000   0.00000   0.00000   0.00000   0.00000   0.00000
Generated with MDTraj, t= 63.0
 83
    1UNL     C1    1   0.256  -0.446   0.004
    1UNL     C2    2   0.283  -0.300   0.004
    1UNL     C3    3   0.375  -0.247  -0.118
    1UNL     C4    4   0.364  -0.082  -0.127
    1UNL     O1    5   0.475  -0.029  -0.054
    1UNL     C5    6   0.230  -0.036  -0.071
    1UNL     C6    7   0.117  -0.126  -0.110
    1UNL     C7    8   0.147  -0.213   0.011
    1UNL     O2    9   0.038  -0.295   0.060
    1UNL     C8   10  -0.078  -0.224   0.101
    1UNL     O3   11  -0.139  -0.147  -0.005
    1UNL     C9   12  -0.160  -0.244  -0.108
    1UNL    C10   13  -0.202  -0.169  -0.234
    1UNL     O4   14  -0.121  -0.062  -0.265
    1UNL    C11   15  -0.186   0.052  -0.225
    1UNL     O5   16  -0.257   0.034  -0.105
    1UNL    C12   17  -0.331   0.150  -0.053
    1UNL    C13   18  -0.299   0.168   0.100
    1UNL     O6   19  -0.296   0.038   0.175
    1UNL    C14   20  -0.308   0.281  -0.121
    1UNL     O7   21  -0.344   0.392  -0.047
    1UNL    C15   22  -0.156   0.301  -0.160
    1UNL     O8   23  -0.139   0.391  -0.271
    1UNL    C16   24  -0.084   0.167  -0.209
    1UNL     O9   25   0.030   0.137  -0.138
    1UNL    C17   26  -0.277  -0.341  -0.055
    1UNL    O10   27  -0.241  -0.473  -0.092
    1UNL    C18   28  -0.307  -0.322   0.090
    1UNL    O11   29  -0.391  -0.425   0.132
    1UNL    C19   30  -0.175  -0.324   0.180
    1UNL    O12   31  -0.120  -0.455   0.183
    1UNL    C20   32   0.201  -0.082   0.079
    1UNL    C21   33   0.117   0.022   0.156
    1UNL    O13   34   0.175   0.157   0.160
    1UNL    C22   35   0.088   0.264   0.137
    1UNL    O14   36  -0.027   0.250   0.106
    1UNL    C23   37   0.143   0.398   0.151
    1UNL    C24   38   0.279   0.416   0.138
    1UNL    C25   39   0.337   0.535   0.145
    1UNL    C26   40   0.261   0.646   0.167
    1UNL    C27   41   0.125   0.637   0.172
    1UNL    C28   42   0.061   0.512   0.174
    1UNL    C29   43   0.319  -0.141   0.159
    1UNL    O15   44   0.374  -0.068   0.242
    1UNL    O16   45   0.352  -0.268   0.128
    1UNL     H1   46   0.234  -0.468  -0.098
    1UNL     H2   47   0.181  -0.470   0.076
    1UNL     H3   48   0.337  -0.500   0.031
    1UNL     H4   49   0.357  -0.297  -0.219
    1UNL     H5   50   0.479  -0.268  -0.089
    1UNL     H6   51   0.380  -0.051  -0.232
    1UNL     H7   52   0.448  -0.015   0.039
    1UNL     H8   53   0.213   0.078  -0.067
    1UNL     H9   54   0.021  -0.074  -0.109
    1UNL    H10   55   0.138  -0.169  -0.205
    1UNL    H11   56  -0.037  -0.141   0.162
    1UNL    H12   57  -0.065  -0.295  -0.122
    1UNL    H13   58  -0.305  -0.135  -0.205
    1UNL    H14   59  -0.211  -0.239  -0.326
    1UNL    H15   60  -0.255   0.071  -0.306
    1UNL    H16   61  -0.441   0.132  -0.065
    1UNL    H17   62  -0.373   0.231   0.152
    1UNL    H18   63  -0.204   0.218   0.112
    1UNL    H19   64  -0.258  -0.032   0.116
    1UNL    H20   65  -0.353   0.292  -0.223
    1UNL    H21   66  -0.430   0.386   0.001
    1UNL    H22   67  -0.104   0.348  -0.081
    1UNL    H23   68  -0.195   0.476  -0.257
    1UNL    H24   69  -0.039   0.165  -0.320
    1UNL    H25   70   0.039   0.193  -0.051
    1UNL    H26   71  -0.371  -0.335  -0.113
    1UNL    H27   72  -0.312  -0.537  -0.069
    1UNL    H28   73  -0.351  -0.226   0.102
    1UNL    H29   74  -0.336  -0.497   0.168
    1UNL    H30   75  -0.188  -0.288   0.278
    1UNL    H31   76  -0.093  -0.480   0.097
    1UNL    H32   77   0.028   0.028   0.097
    1UNL    H33   78   0.112  -0.006   0.265
    1UNL    H34   79   0.330   0.321   0.117
    1UNL    H35   80   0.441   0.560   0.118
    1UNL    H36   81   0.306   0.736   0.194
    1UNL    H37   82   0.068   0.720   0.182
    1UNL    H38   83  -0.040   0.501   0.182
   0.00000   0.00000   0.00000   0.00000   0.00000   0.00000   0.00000   0.00000   0.00000
Generated with MDTraj, t= 64.0
 83
    1UNL     C1    1   0.251  -0.439   0.014
    1UNL     C2    2   0.281  -0.286   0.019
    1UNL     C3    3   0.370  -0.243  -0.098
    1UNL     C4    4   0.377  -0.086  -0.104
    1UNL     O1    5   0.492  -0.028  -0.046
    1UNL     C5    6   0.241  -0.030  -0.061
    1UNL     C6    7   0.121  -0.120  -0.107
    1UNL     C7    8   0.145  -0.209   0.026
    1UNL     O2    9   0.038  -0.279   0.096
    1UNL     C8   10  -0.091  -0.223   0.102
    1UNL     O3   11  -0.143  -0.166  -0.019
    1UNL     C9   12  -0.177  -0.257  -0.121
    1UNL    C10   13  -0.230  -0.172  -0.236
    1UNL     O4   14  -0.148  -0.063  -0.279
    1UNL    C11   15  -0.214   0.058  -0.233
    1UNL     O5   16  -0.239   0.056  -0.092
    1UNL    C12   17  -0.336   0.154  -0.048
    1UNL    C13   18  -0.306   0.174   0.102
    1UNL     O6   19  -0.272   0.043   0.164
    1UNL    C14   20  -0.334   0.284  -0.134
    1UNL     O7   21  -0.395   0.399  -0.079
    1UNL    C15   22  -0.189   0.313  -0.185
    1UNL     O8   23  -0.187   0.425  -0.264
    1UNL    C16   24  -0.123   0.190  -0.252
    1UNL     O9   25  -0.004   0.171  -0.183
    1UNL    C17   26  -0.269  -0.373  -0.070
    1UNL    O10   27  -0.202  -0.503  -0.071
    1UNL    C18   28  -0.316  -0.344   0.071
    1UNL    O11   29  -0.389  -0.461   0.110
    1UNL    C19   30  -0.193  -0.324   0.170
    1UNL    O12   31  -0.135  -0.449   0.194
    1UNL    C20   32   0.201  -0.072   0.080
    1UNL    C21   33   0.115   0.024   0.163
    1UNL    O13   34   0.186   0.143   0.177
    1UNL    C22   35   0.111   0.252   0.143
    1UNL    O14   36  -0.003   0.247   0.106
    1UNL    C23   37   0.179   0.379   0.156
    1UNL    C24   38   0.319   0.390   0.164
    1UNL    C25   39   0.369   0.512   0.182
    1UNL    C26   40   0.289   0.627   0.179
    1UNL    C27   41   0.154   0.618   0.163
    1UNL    C28   42   0.103   0.491   0.156
    1UNL    C29   43   0.328  -0.118   0.170
    1UNL    O15   44   0.397  -0.038   0.233
    1UNL    O16   45   0.363  -0.245   0.139
    1UNL     H1   46   0.171  -0.458  -0.051
    1UNL     H2   47   0.237  -0.465   0.112
    1UNL     H3   48   0.333  -0.500  -0.018
    1UNL     H4   49   0.321  -0.280  -0.195
    1UNL     H5   50   0.468  -0.291  -0.087
    1UNL     H6   51   0.395  -0.066  -0.213
    1UNL     H7   52   0.468  -0.011   0.048
    1UNL     H8   53   0.230   0.083  -0.071
    1UNL     H9   54   0.030  -0.069  -0.117
    1UNL    H10   55   0.142  -0.175  -0.200
    1UNL    H11   56  -0.087  -0.136   0.177
    1UNL    H12   57  -0.078  -0.293  -0.143
    1UNL    H13   58  -0.330  -0.127  -0.208
    1UNL    H14   59  -0.241  -0.246  -0.326
    1UNL    H15   60  -0.303   0.072  -0.293
    1UNL    H16   61  -0.438   0.113  -0.057
    1UNL    H17   62  -0.384   0.224   0.158
    1UNL    H18   63  -0.213   0.233   0.117
    1UNL    H19   64  -0.244  -0.019   0.092
    1UNL    H20   65  -0.399   0.261  -0.222
    1UNL    H21   66  -0.471   0.364  -0.031
    1UNL    H22   67  -0.134   0.354  -0.102
    1UNL    H23   68  -0.260   0.478  -0.240
    1UNL    H24   69  -0.099   0.221  -0.365
    1UNL    H25   70  -0.010   0.208  -0.092
    1UNL    H26   71  -0.357  -0.383  -0.131
    1UNL    H27   72  -0.263  -0.571  -0.039
    1UNL    H28   73  -0.384  -0.264   0.073
    1UNL    H29   74  -0.344  -0.514   0.181
    1UNL    H30   75  -0.224  -0.294   0.266
    1UNL    H31   76  -0.099  -0.482   0.105
    1UNL    H32   77   0.026   0.044   0.110
    1UNL    H33   78   0.107  -0.022   0.265
    1UNL    H34   79   0.383   0.307   0.149
    1UNL    H35   80   0.476   0.522   0.193
    1UNL    H36   81   0.351   0.723   0.198
    1UNL    H37   82   0.091   0.711   0.177
    1UNL    H38   83  -0.007   0.488   0.137
   0.00000   0.00000   0.00000   0.00000   0.00000   0.00000   0.00000   0.00000   0.00000
Generated with MDTraj, t= 65.0
 83
    1UNL     C1    1   0.261  -0.454   0.025
    1UNL     C2    2   0.282  -0.298   0.024
    1UNL     C3    3   0.362  -0.248  -0.103
    1UNL     C4    4   0.363  -0.091  -0.106
    1UNL     O1    5   0.480  -0.028  -0.063
    1UNL     C5    6   0.234  -0.033  -0.043
    1UNL     C6    7   0.116  -0.124  -0.083
    1UNL     C7    8   0.145  -0.212   0.040
    1UNL     O2    9   0.039  -0.290   0.090
    1UNL     C8   10  -0.080  -0.222   0.116
    1UNL     O3   11  -0.137  -0.154   0.001
    1UNL     C9   12  -0.156  -0.236  -0.115
    1UNL    C10   13  -0.222  -0.174  -0.239
    1UNL     O4   14  -0.156  -0.053  -0.270
    1UNL    C11   15  -0.241   0.058  -0.237
    1UNL     O5   16  -0.295   0.049  -0.106
    1UNL    C12   17  -0.363   0.157  -0.043
    1UNL    C13   18  -0.300   0.187   0.099
    1UNL     O6   19  -0.309   0.075   0.173
    1UNL    C14   20  -0.369   0.282  -0.141
    1UNL     O7   21  -0.418   0.407  -0.091
    1UNL    C15   22  -0.223   0.309  -0.194
    1UNL     O8   23  -0.224   0.424  -0.275
    1UNL    C16   24  -0.162   0.195  -0.259
    1UNL     O9   25  -0.029   0.176  -0.225
    1UNL    C17   26  -0.234  -0.363  -0.080
    1UNL    O10   27  -0.142  -0.475  -0.075
    1UNL    C18   28  -0.294  -0.354   0.058
    1UNL    O11   29  -0.368  -0.466   0.097
    1UNL    C19   30  -0.183  -0.333   0.164
    1UNL    O12   31  -0.120  -0.447   0.194
    1UNL    C20   32   0.203  -0.075   0.107
    1UNL    C21   33   0.104   0.022   0.185
    1UNL    O13   34   0.162   0.147   0.211
    1UNL    C22   35   0.121   0.251   0.130
    1UNL    O14   36   0.040   0.242   0.040
    1UNL    C23   37   0.188   0.380   0.165
    1UNL    C24   38   0.321   0.374   0.206
    1UNL    C25   39   0.392   0.491   0.228
    1UNL    C26   40   0.335   0.610   0.187
    1UNL    C27   41   0.206   0.617   0.146
    1UNL    C28   42   0.131   0.499   0.125
    1UNL    C29   43   0.329  -0.117   0.178
    1UNL    O15   44   0.397  -0.049   0.248
    1UNL    O16   45   0.358  -0.248   0.136
    1UNL     H1   46   0.238  -0.486  -0.070
    1UNL     H2   47   0.191  -0.474   0.096
    1UNL     H3   48   0.348  -0.507   0.064
    1UNL     H4   49   0.315  -0.282  -0.201
    1UNL     H5   50   0.466  -0.283  -0.104
    1UNL     H6   51   0.366  -0.066  -0.217
    1UNL     H7   52   0.492  -0.043   0.033
    1UNL     H8   53   0.206   0.075  -0.069
    1UNL     H9   54   0.027  -0.072  -0.082
    1UNL    H10   55   0.135  -0.163  -0.186
    1UNL    H11   56  -0.074  -0.151   0.210
    1UNL    H12   57  -0.052  -0.255  -0.133
    1UNL    H13   58  -0.328  -0.142  -0.220
    1UNL    H14   59  -0.211  -0.240  -0.334
    1UNL    H15   60  -0.320   0.059  -0.313
    1UNL    H16   61  -0.466   0.123  -0.039
    1UNL    H17   62  -0.358   0.257   0.155
    1UNL    H18   63  -0.196   0.219   0.094
    1UNL    H19   64  -0.257   0.004   0.127
    1UNL    H20   65  -0.436   0.258  -0.224
    1UNL    H21   66  -0.496   0.399  -0.029
    1UNL    H22   67  -0.157   0.331  -0.111
    1UNL    H23   68  -0.282   0.494  -0.236
    1UNL    H24   69  -0.133   0.222  -0.372
    1UNL    H25   70  -0.017   0.186  -0.123
    1UNL    H26   71  -0.308  -0.373  -0.156
    1UNL    H27   72  -0.191  -0.561  -0.061
    1UNL    H28   73  -0.351  -0.266   0.064
    1UNL    H29   74  -0.313  -0.536   0.139
    1UNL    H30   75  -0.223  -0.303   0.259
    1UNL    H31   76  -0.076  -0.471   0.113
    1UNL    H32   77   0.016   0.037   0.130
    1UNL    H33   78   0.085  -0.023   0.285
    1UNL    H34   79   0.365   0.274   0.213
    1UNL    H35   80   0.488   0.476   0.273
    1UNL    H36   81   0.398   0.690   0.197
    1UNL    H37   82   0.169   0.717   0.130
    1UNL    H38   83   0.026   0.497   0.090
   0.00000   0.00000   0.00000   0.00000   0.00000   0.00000   0.00000   0.00000   0.00000
Generated with MDTraj, t= 66.0
 83
    1UNL     C1    1   0.237  -0.413   0.009
    1UNL     C2    2   0.272  -0.271   0.017
    1UNL     C3    3   0.366  -0.222  -0.103
    1UNL     C4    4   0.376  -0.063  -0.102
    1UNL     O1    5   0.488  -0.014  -0.022
    1UNL     C5    6   0.236  -0.010  -0.045
    1UNL     C6    7   0.112  -0.098  -0.097
    1UNL     C7    8   0.136  -0.186   0.027
    1UNL     O2    9   0.037  -0.266   0.101
    1UNL     C8   10  -0.091  -0.215   0.116
    1UNL     O3   11  -0.154  -0.159  -0.002
    1UNL     C9   12  -0.160  -0.247  -0.115
    1UNL    C10   13  -0.250  -0.169  -0.218
    1UNL     O4   14  -0.173  -0.054  -0.266
    1UNL    C11   15  -0.241   0.060  -0.237
    1UNL     O5   16  -0.299   0.057  -0.105
    1UNL    C12   17  -0.374   0.165  -0.051
    1UNL    C13   18  -0.313   0.189   0.085
    1UNL     O6   19  -0.283   0.073   0.156
    1UNL    C14   20  -0.386   0.287  -0.143
    1UNL     O7   21  -0.428   0.403  -0.075
    1UNL    C15   22  -0.244   0.314  -0.205
    1UNL     O8   23  -0.245   0.430  -0.292
    1UNL    C16   24  -0.165   0.201  -0.273
    1UNL     O9   25  -0.028   0.198  -0.233
    1UNL    C17   26  -0.218  -0.386  -0.074
    1UNL    O10   27  -0.115  -0.482  -0.068
    1UNL    C18   28  -0.289  -0.386   0.063
    1UNL    O11   29  -0.348  -0.509   0.097
    1UNL    C19   30  -0.189  -0.329   0.176
    1UNL    O12   31  -0.116  -0.439   0.218
    1UNL    C20   32   0.198  -0.063   0.100
    1UNL    C21   33   0.102   0.025   0.184
    1UNL    O13   34   0.162   0.145   0.220
    1UNL    C22   35   0.138   0.233   0.122
    1UNL    O14   36   0.054   0.216   0.034
    1UNL    C23   37   0.224   0.354   0.137
    1UNL    C24   38   0.319   0.348   0.234
    1UNL    C25   39   0.385   0.462   0.273
    1UNL    C26   40   0.351   0.579   0.214
    1UNL    C27   41   0.251   0.585   0.110
    1UNL    C28   42   0.182   0.470   0.070
    1UNL    C29   43   0.319  -0.116   0.170
    1UNL    O15   44   0.369  -0.045   0.249
    1UNL    O16   45   0.349  -0.251   0.138
    1UNL     H1   46   0.155  -0.414  -0.054
    1UNL     H2   47   0.219  -0.451   0.108
    1UNL     H3   48   0.315  -0.472  -0.027
    1UNL     H4   49   0.336  -0.263  -0.202
    1UNL     H5   50   0.471  -0.257  -0.087
    1UNL     H6   51   0.392  -0.013  -0.201
    1UNL     H7   52   0.474  -0.022   0.075
    1UNL     H8   53   0.218   0.102  -0.046
    1UNL     H9   54   0.012  -0.063  -0.104
    1UNL    H10   55   0.138  -0.160  -0.184
    1UNL    H11   56  -0.086  -0.126   0.195
    1UNL    H12   57  -0.053  -0.264  -0.131
    1UNL    H13   58  -0.334  -0.126  -0.164
    1UNL    H14   59  -0.280  -0.230  -0.309
    1UNL    H15   60  -0.329   0.054  -0.307
    1UNL    H16   61  -0.474   0.126  -0.053
    1UNL    H17   62  -0.380   0.251   0.138
    1UNL    H18   63  -0.217   0.235   0.071
    1UNL    H19   64  -0.226   0.014   0.100
    1UNL    H20   65  -0.460   0.269  -0.221
    1UNL    H21   66  -0.508   0.394  -0.017
    1UNL    H22   67  -0.192   0.343  -0.114
    1UNL    H23   68  -0.281   0.512  -0.242
    1UNL    H24   69  -0.160   0.229  -0.388
    1UNL    H25   70  -0.020   0.174  -0.140
    1UNL    H26   71  -0.282  -0.422  -0.148
    1UNL    H27   72  -0.157  -0.572  -0.047
    1UNL    H28   73  -0.373  -0.320   0.057
    1UNL    H29   74  -0.293  -0.564   0.157
    1UNL    H30   75  -0.242  -0.292   0.263
    1UNL    H31   76  -0.033  -0.443   0.160
    1UNL    H32   77   0.016   0.051   0.128
    1UNL    H33   78   0.075  -0.037   0.274
    1UNL    H34   79   0.340   0.255   0.282
    1UNL    H35   80   0.462   0.455   0.352
    1UNL    H36   81   0.400   0.673   0.247
    1UNL    H37   82   0.212   0.674   0.069
    1UNL    H38   83   0.102   0.478   0.005
   0.00000   0.00000   0.00000   0.00000   0.00000   0.00000   0.00000   0.00000   0.00000
Generated with MDTraj, t= 67.0
 83
    1UNL     C1    1   0.256  -0.426  -0.021
    1UNL     C2    2   0.268  -0.270  -0.001
    1UNL     C3    3   0.357  -0.190  -0.097
    1UNL     C4    4   0.349  -0.039  -0.085
    1UNL     O1    5   0.459   0.017  -0.016
    1UNL     C5    6   0.211   0.000  -0.031
    1UNL     C6    7   0.097  -0.090  -0.096
    1UNL     C7    8   0.129  -0.193   0.018
    1UNL     O2    9   0.024  -0.277   0.075
    1UNL     C8   10  -0.091  -0.213   0.106
    1UNL     O3   11  -0.157  -0.148  -0.005
    1UNL     C9   12  -0.160  -0.240  -0.117
    1UNL    C10   13  -0.243  -0.181  -0.236
    1UNL     O4   14  -0.190  -0.054  -0.285
    1UNL    C11   15  -0.249   0.054  -0.238
    1UNL     O5   16  -0.269   0.058  -0.092
    1UNL    C12   17  -0.358   0.163  -0.041
    1UNL    C13   18  -0.292   0.198   0.101
    1UNL     O6   19  -0.274   0.074   0.183
    1UNL    C14   20  -0.381   0.277  -0.141
    1UNL     O7   21  -0.426   0.400  -0.080
    1UNL    C15   22  -0.236   0.305  -0.207
    1UNL     O8   23  -0.252   0.416  -0.300
    1UNL    C16   24  -0.176   0.181  -0.283
    1UNL     O9   25  -0.042   0.159  -0.255
    1UNL    C17   26  -0.222  -0.383  -0.084
    1UNL    O10   27  -0.117  -0.478  -0.092
    1UNL    C18   28  -0.278  -0.390   0.063
    1UNL    O11   29  -0.294  -0.524   0.094
    1UNL    C19   30  -0.187  -0.312   0.174
    1UNL    O12   31  -0.114  -0.407   0.246
    1UNL    C20   32   0.179  -0.069   0.108
    1UNL    C21   33   0.082   0.022   0.201
    1UNL    O13   34   0.136   0.148   0.238
    1UNL    C22   35   0.129   0.243   0.138
    1UNL    O14   36   0.064   0.232   0.035
    1UNL    C23   37   0.216   0.359   0.160
    1UNL    C24   38   0.283   0.368   0.277
    1UNL    C25   39   0.384   0.469   0.284
    1UNL    C26   40   0.397   0.567   0.188
    1UNL    C27   41   0.314   0.566   0.073
    1UNL    C28   42   0.220   0.463   0.068
    1UNL    C29   43   0.306  -0.127   0.181
    1UNL    O15   44   0.367  -0.068   0.265
    1UNL    O16   45   0.335  -0.254   0.127
    1UNL     H1   46   0.222  -0.447  -0.118
    1UNL     H2   47   0.192  -0.475   0.052
    1UNL     H3   48   0.343  -0.471   0.003
    1UNL     H4   49   0.342  -0.224  -0.199
    1UNL     H5   50   0.464  -0.219  -0.072
    1UNL     H6   51   0.345   0.015  -0.181
    1UNL     H7   52   0.457  -0.006   0.080
    1UNL     H8   53   0.177   0.109  -0.044
    1UNL     H9   54  -0.001  -0.041  -0.095
    1UNL    H10   55   0.115  -0.120  -0.196
    1UNL    H11   56  -0.052  -0.132   0.177
    1UNL    H12   57  -0.056  -0.246  -0.150
    1UNL    H13   58  -0.343  -0.163  -0.204
    1UNL    H14   59  -0.236  -0.247  -0.324
    1UNL    H15   60  -0.354   0.047  -0.279
    1UNL    H16   61  -0.451   0.115  -0.019
    1UNL    H17   62  -0.349   0.270   0.156
    1UNL    H18   63  -0.194   0.240   0.088
    1UNL    H19   64  -0.249  -0.001   0.122
    1UNL    H20   65  -0.450   0.239  -0.216
    1UNL    H21   66  -0.504   0.374  -0.027
    1UNL    H22   67  -0.162   0.336  -0.134
    1UNL    H23   68  -0.287   0.495  -0.259
    1UNL    H24   69  -0.188   0.198  -0.399
    1UNL    H25   70  -0.027   0.164  -0.154
    1UNL    H26   71  -0.291  -0.407  -0.157
    1UNL    H27   72  -0.135  -0.546  -0.027
    1UNL    H28   73  -0.376  -0.344   0.064
    1UNL    H29   74  -0.298  -0.544   0.190
    1UNL    H30   75  -0.255  -0.263   0.247
    1UNL    H31   76  -0.045  -0.444   0.192
    1UNL    H32   77  -0.009   0.045   0.149
    1UNL    H33   78   0.059  -0.031   0.300
    1UNL    H34   79   0.269   0.294   0.356
    1UNL    H35   80   0.465   0.456   0.354
    1UNL    H36   81   0.468   0.649   0.195
    1UNL    H37   82   0.328   0.646  -0.007
    1UNL    H38   83   0.146   0.457  -0.021
   0.00000   0.00000   0.00000   0.00000   0.00000   0.00000   0.00000   0.00000   0.00000
Generated with MDTraj, t= 68.0
 83
    1UNL     C1    1   0.244  -0.397  -0.035
    1UNL     C2    2   0.265  -0.251  -0.008
    1UNL     C3    3   0.357  -0.183  -0.108
    1UNL     C4    4   0.352  -0.029  -0.094
    1UNL     O1    5   0.460   0.022  -0.011
    1UNL     C5    6   0.208   0.013  -0.037
    1UNL     C6    7   0.096  -0.072  -0.100
    1UNL     C7    8   0.119  -0.179   0.014
    1UNL     O2    9   0.025  -0.271   0.081
    1UNL     C8   10  -0.103  -0.223   0.103
    1UNL     O3   11  -0.166  -0.159  -0.015
    1UNL     C9   12  -0.186  -0.251  -0.121
    1UNL    C10   13  -0.263  -0.183  -0.235
    1UNL     O4   14  -0.195  -0.064  -0.292
    1UNL    C11   15  -0.242   0.057  -0.245
    1UNL     O5   16  -0.269   0.044  -0.096
    1UNL    C12   17  -0.341   0.157  -0.043
    1UNL    C13   18  -0.275   0.192   0.096
    1UNL     O6   19  -0.251   0.069   0.166
    1UNL    C14   20  -0.356   0.283  -0.127
    1UNL     O7   21  -0.398   0.401  -0.063
    1UNL    C15   22  -0.222   0.312  -0.207
    1UNL     O8   23  -0.249   0.403  -0.305
    1UNL    C16   24  -0.154   0.185  -0.263
    1UNL     O9   25  -0.025   0.161  -0.204
    1UNL    C17   26  -0.222  -0.399  -0.082
    1UNL    O10   27  -0.116  -0.495  -0.096
    1UNL    C18   28  -0.279  -0.418   0.062
    1UNL    O11   29  -0.266  -0.551   0.100
    1UNL    C19   30  -0.199  -0.330   0.170
    1UNL    O12   31  -0.121  -0.403   0.263
    1UNL    C20   32   0.167  -0.051   0.106
    1UNL    C21   33   0.067   0.030   0.198
    1UNL    O13   34   0.135   0.148   0.231
    1UNL    C22   35   0.110   0.252   0.144
    1UNL    O14   36   0.018   0.267   0.066
    1UNL    C23   37   0.209   0.358   0.149
    1UNL    C24   38   0.270   0.383   0.275
    1UNL    C25   39   0.372   0.478   0.288
    1UNL    C26   40   0.408   0.557   0.177
    1UNL    C27   41   0.347   0.530   0.055
    1UNL    C28   42   0.256   0.430   0.044
    1UNL    C29   43   0.287  -0.119   0.184
    1UNL    O15   44   0.348  -0.063   0.273
    1UNL    O16   45   0.324  -0.232   0.121
    1UNL     H1   46   0.201  -0.421  -0.129
    1UNL     H2   47   0.194  -0.448   0.043
    1UNL     H3   48   0.336  -0.444  -0.021
    1UNL     H4   49   0.321  -0.216  -0.205
    1UNL     H5   50   0.465  -0.223  -0.102
    1UNL     H6   51   0.369   0.023  -0.188
    1UNL     H7   52   0.449  -0.008   0.081
    1UNL     H8   53   0.186   0.125  -0.045
    1UNL     H9   54  -0.006  -0.023  -0.095
    1UNL    H10   55   0.111  -0.099  -0.200
    1UNL    H11   56  -0.083  -0.138   0.167
    1UNL    H12   57  -0.084  -0.261  -0.166
    1UNL    H13   58  -0.351  -0.148  -0.192
    1UNL    H14   59  -0.280  -0.255  -0.312
    1UNL    H15   60  -0.344   0.064  -0.292
    1UNL    H16   61  -0.439   0.118  -0.020
    1UNL    H17   62  -0.340   0.245   0.166
    1UNL    H18   63  -0.184   0.252   0.085
    1UNL    H19   64  -0.243  -0.003   0.098
    1UNL    H20   65  -0.424   0.271  -0.213
    1UNL    H21   66  -0.471   0.390   0.000
    1UNL    H22   67  -0.152   0.360  -0.138
    1UNL    H23   68  -0.306   0.471  -0.262
    1UNL    H24   69  -0.137   0.202  -0.378
    1UNL    H25   70  -0.017   0.208  -0.125
    1UNL    H26   71  -0.291  -0.439  -0.150
    1UNL    H27   72  -0.138  -0.568  -0.034
    1UNL    H28   73  -0.387  -0.389   0.069
    1UNL    H29   74  -0.275  -0.560   0.200
    1UNL    H30   75  -0.280  -0.283   0.234
    1UNL    H31   76  -0.025  -0.415   0.229
    1UNL    H32   77  -0.030   0.047   0.154
    1UNL    H33   78   0.056  -0.032   0.293
    1UNL    H34   79   0.249   0.316   0.354
    1UNL    H35   80   0.420   0.473   0.386
    1UNL    H36   81   0.488   0.625   0.182
    1UNL    H37   82   0.379   0.579  -0.029
    1UNL    H38   83   0.209   0.408  -0.044
   0.00000   0.00000   0.00000   0.00000   0.00000   0.00000   0.00000   0.00000   0.00000
Generated with MDTraj, t= 69.0
 83
    1UNL     C1    1   0.234  -0.398  -0.021
    1UNL     C2    2   0.250  -0.246   0.003
    1UNL     C3    3   0.337  -0.174  -0.108
    1UNL     C4    4   0.317  -0.020  -0.096
    1UNL     O1    5   0.434   0.036  -0.022
    1UNL     C5    6   0.183   0.015  -0.031
    1UNL     C6    7   0.072  -0.076  -0.093
    1UNL     C7    8   0.109  -0.179   0.027
    1UNL     O2    9   0.021  -0.271   0.082
    1UNL     C8   10  -0.108  -0.224   0.107
    1UNL     O3   11  -0.174  -0.160  -0.007
    1UNL     C9   12  -0.166  -0.248  -0.118
    1UNL    C10   13  -0.238  -0.181  -0.227
    1UNL     O4   14  -0.179  -0.065  -0.272
    1UNL    C11   15  -0.247   0.049  -0.232
    1UNL     O5   16  -0.318   0.042  -0.101
    1UNL    C12   17  -0.354   0.170  -0.035
    1UNL    C13   18  -0.266   0.179   0.087
    1UNL     O6   19  -0.262   0.068   0.159
    1UNL    C14   20  -0.339   0.297  -0.118
    1UNL     O7   21  -0.366   0.418  -0.060
    1UNL    C15   22  -0.203   0.303  -0.197
    1UNL     O8   23  -0.214   0.382  -0.303
    1UNL    C16   24  -0.148   0.166  -0.243
    1UNL     O9   25  -0.020   0.144  -0.198
    1UNL    C17   26  -0.217  -0.388  -0.087
    1UNL    O10   27  -0.108  -0.479  -0.114
    1UNL    C18   28  -0.271  -0.418   0.059
    1UNL    O11   29  -0.269  -0.556   0.077
    1UNL    C19   30  -0.186  -0.342   0.163
    1UNL    O12   31  -0.101  -0.427   0.233
    1UNL    C20   32   0.162  -0.051   0.107
    1UNL    C21   33   0.074   0.032   0.206
    1UNL    O13   34   0.145   0.151   0.238
    1UNL    C22   35   0.111   0.253   0.151
    1UNL    O14   36   0.024   0.250   0.064
    1UNL    C23   37   0.203   0.367   0.156
    1UNL    C24   38   0.263   0.406   0.276
    1UNL    C25   39   0.370   0.494   0.284
    1UNL    C26   40   0.421   0.541   0.157
    1UNL    C27   41   0.351   0.506   0.044
    1UNL    C28   42   0.251   0.414   0.039
    1UNL    C29   43   0.284  -0.104   0.174
    1UNL    O15   44   0.342  -0.035   0.258
    1UNL    O16   45   0.324  -0.225   0.129
    1UNL     H1   46   0.161  -0.420  -0.092
    1UNL     H2   47   0.215  -0.451   0.065
    1UNL     H3   48   0.331  -0.449  -0.039
    1UNL     H4   49   0.331  -0.225  -0.205
    1UNL     H5   50   0.445  -0.191  -0.079
    1UNL     H6   51   0.326   0.024  -0.194
    1UNL     H7   52   0.426   0.022   0.076
    1UNL     H8   53   0.155   0.126  -0.024
    1UNL     H9   54  -0.036  -0.046  -0.093
    1UNL    H10   55   0.094  -0.126  -0.185
    1UNL    H11   56  -0.100  -0.149   0.177
    1UNL    H12   57  -0.059  -0.261  -0.147
    1UNL    H13   58  -0.332  -0.164  -0.185
    1UNL    H14   59  -0.238  -0.245  -0.311
    1UNL    H15   60  -0.334   0.073  -0.300
    1UNL    H16   61  -0.459   0.145  -0.010
    1UNL    H17   62  -0.302   0.263   0.150
    1UNL    H18   63  -0.162   0.198   0.062
    1UNL    H19   64  -0.229  -0.007   0.103
    1UNL    H20   65  -0.415   0.285  -0.198
    1UNL    H21   66  -0.442   0.404   0.003
    1UNL    H22   67  -0.129   0.351  -0.129
    1UNL    H23   68  -0.277   0.458  -0.276
    1UNL    H24   69  -0.136   0.192  -0.358
    1UNL    H25   70  -0.004   0.186  -0.104
    1UNL    H26   71  -0.296  -0.416  -0.150
    1UNL    H27   72  -0.134  -0.562  -0.069
    1UNL    H28   73  -0.378  -0.383   0.075
    1UNL    H29   74  -0.261  -0.576   0.170
    1UNL    H30   75  -0.257  -0.311   0.247
    1UNL    H31   76  -0.012  -0.416   0.203
    1UNL    H32   77  -0.021   0.049   0.159
    1UNL    H33   78   0.052  -0.029   0.300
    1UNL    H34   79   0.225   0.354   0.366
    1UNL    H35   80   0.415   0.543   0.367
    1UNL    H36   81   0.511   0.605   0.155
    1UNL    H37   82   0.365   0.566  -0.051
    1UNL    H38   83   0.197   0.381  -0.053
   0.00000   0.00000   0.00000   0.00000   0.00000   0.00000   0.00000   0.00000   0.00000
Generated with MDTraj, t= 70.0
 83
    1UNL     C1    1   0.252  -0.395  -0.014
    1UNL     C2    2   0.267  -0.245   0.012
    1UNL     C3    3   0.338  -0.168  -0.106
    1UNL     C4    4   0.315  -0.018  -0.094
    1UNL     O1    5   0.433   0.042  -0.040
    1UNL     C5    6   0.181   0.016  -0.016
    1UNL     C6    7   0.069  -0.084  -0.056
    1UNL     C7    8   0.121  -0.180   0.047
    1UNL     O2    9   0.021  -0.277   0.096
    1UNL     C8   10  -0.110  -0.243   0.120
    1UNL     O3   11  -0.174  -0.177   0.013
    1UNL     C9   12  -0.184  -0.259  -0.110
    1UNL    C10   13  -0.256  -0.174  -0.227
    1UNL     O4   14  -0.191  -0.065  -0.279
    1UNL    C11   15  -0.250   0.060  -0.243
    1UNL     O5   16  -0.287   0.062  -0.107
    1UNL    C12   17  -0.349   0.176  -0.047
    1UNL    C13   18  -0.280   0.185   0.088
    1UNL     O6   19  -0.296   0.062   0.149
    1UNL    C14   20  -0.347   0.305  -0.138
    1UNL     O7   21  -0.374   0.422  -0.064
    1UNL    C15   22  -0.200   0.322  -0.196
    1UNL     O8   23  -0.200   0.422  -0.291
    1UNL    C16   24  -0.149   0.182  -0.259
    1UNL     O9   25  -0.021   0.150  -0.216
    1UNL    C17   26  -0.221  -0.406  -0.085
    1UNL    O10   27  -0.107  -0.484  -0.095
    1UNL    C18   28  -0.283  -0.432   0.053
    1UNL    O11   29  -0.306  -0.571   0.070
    1UNL    C19   30  -0.194  -0.368   0.165
    1UNL    O12   31  -0.105  -0.468   0.218
    1UNL    C20   32   0.177  -0.053   0.125
    1UNL    C21   33   0.078   0.025   0.216
    1UNL    O13   34   0.117   0.154   0.251
    1UNL    C22   35   0.110   0.250   0.151
    1UNL    O14   36   0.032   0.251   0.056
    1UNL    C23   37   0.214   0.356   0.157
    1UNL    C24   38   0.282   0.391   0.275
    1UNL    C25   39   0.366   0.494   0.273
    1UNL    C26   40   0.400   0.559   0.149
    1UNL    C27   41   0.348   0.515   0.031
    1UNL    C28   42   0.259   0.408   0.033
    1UNL    C29   43   0.314  -0.096   0.175
    1UNL    O15   44   0.383  -0.023   0.249
    1UNL    O16   45   0.351  -0.217   0.124
    1UNL     H1   46   0.218  -0.400  -0.113
    1UNL     H2   47   0.190  -0.451   0.046
    1UNL     H3   48   0.346  -0.453   0.006
    1UNL     H4   49   0.288  -0.195  -0.202
    1UNL     H5   50   0.444  -0.199  -0.115
    1UNL     H6   51   0.309   0.020  -0.196
    1UNL     H7   52   0.436   0.028   0.056
    1UNL     H8   53   0.151   0.125  -0.029
    1UNL     H9   54  -0.034  -0.043  -0.049
    1UNL    H10   55   0.081  -0.121  -0.160
    1UNL    H11   56  -0.117  -0.176   0.197
    1UNL    H12   57  -0.082  -0.269  -0.156
    1UNL    H13   58  -0.346  -0.133  -0.192
    1UNL    H14   59  -0.271  -0.239  -0.309
    1UNL    H15   60  -0.340   0.072  -0.307
    1UNL    H16   61  -0.455   0.141  -0.032
    1UNL    H17   62  -0.329   0.264   0.151
    1UNL    H18   63  -0.175   0.213   0.078
    1UNL    H19   64  -0.247  -0.006   0.097
    1UNL    H20   65  -0.422   0.303  -0.222
    1UNL    H21   66  -0.453   0.414  -0.005
    1UNL    H22   67  -0.130   0.345  -0.112
    1UNL    H23   68  -0.247   0.512  -0.268
    1UNL    H24   69  -0.115   0.186  -0.371
    1UNL    H25   70  -0.007   0.177  -0.129
    1UNL    H26   71  -0.285  -0.430  -0.166
    1UNL    H27   72  -0.128  -0.567  -0.046
    1UNL    H28   73  -0.384  -0.380   0.048
    1UNL    H29   74  -0.279  -0.596   0.164
    1UNL    H30   75  -0.262  -0.341   0.252
    1UNL    H31   76  -0.011  -0.447   0.187
    1UNL    H32   77  -0.019   0.029   0.173
    1UNL    H33   78   0.069  -0.041   0.307
    1UNL    H34   79   0.248   0.345   0.365
    1UNL    H35   80   0.417   0.536   0.365
    1UNL    H36   81   0.446   0.657   0.142
    1UNL    H37   82   0.349   0.564  -0.063
    1UNL    H38   83   0.211   0.371  -0.060
   0.00000   0.00000   0.00000   0.00000   0.00000   0.00000   0.00000   0.00000   0.00000
Generated with MDTraj, t= 71.0
 83
    1UNL     C1    1   0.243  -0.403  -0.002
    1UNL     C2    2   0.271  -0.251   0.006
    1UNL     C3    3   0.342  -0.188  -0.114
    1UNL     C4    4   0.334  -0.038  -0.106
    1UNL     O1    5   0.433   0.038  -0.044
    1UNL     C5    6   0.198   0.008  -0.039
    1UNL     C6    7   0.082  -0.089  -0.079
    1UNL     C7    8   0.132  -0.177   0.032
    1UNL     O2    9   0.036  -0.270   0.102
    1UNL     C8   10  -0.100  -0.232   0.130
    1UNL     O3   11  -0.161  -0.162   0.023
    1UNL     C9   12  -0.162  -0.246  -0.108
    1UNL    C10   13  -0.243  -0.173  -0.215
    1UNL     O4   14  -0.171  -0.066  -0.260
    1UNL    C11   15  -0.233   0.051  -0.220
    1UNL     O5   16  -0.259   0.064  -0.081
    1UNL    C12   17  -0.354   0.165  -0.044
    1UNL    C13   18  -0.324   0.203   0.101
    1UNL     O6   19  -0.300   0.082   0.178
    1UNL    C14   20  -0.345   0.289  -0.142
    1UNL     O7   21  -0.389   0.413  -0.081
    1UNL    C15   22  -0.197   0.304  -0.192
    1UNL     O8   23  -0.183   0.419  -0.274
    1UNL    C16   24  -0.138   0.172  -0.258
    1UNL     O9   25  -0.007   0.154  -0.218
    1UNL    C17   26  -0.211  -0.394  -0.083
    1UNL    O10   27  -0.112  -0.492  -0.099
    1UNL    C18   28  -0.288  -0.400   0.050
    1UNL    O11   29  -0.350  -0.528   0.076
    1UNL    C19   30  -0.191  -0.359   0.161
    1UNL    O12   31  -0.095  -0.464   0.177
    1UNL    C20   32   0.176  -0.050   0.106
    1UNL    C21   33   0.085   0.020   0.213
    1UNL    O13   34   0.143   0.142   0.238
    1UNL    C22   35   0.107   0.237   0.148
    1UNL    O14   36   0.018   0.220   0.065
    1UNL    C23   37   0.190   0.361   0.153
    1UNL    C24   38   0.265   0.385   0.270
    1UNL    C25   39   0.366   0.478   0.263
    1UNL    C26   40   0.382   0.551   0.145
    1UNL    C27   41   0.316   0.522   0.026
    1UNL    C28   42   0.212   0.432   0.037
    1UNL    C29   43   0.305  -0.091   0.178
    1UNL    O15   44   0.363  -0.023   0.261
    1UNL    O16   45   0.348  -0.209   0.125
    1UNL     H1   46   0.146  -0.408  -0.047
    1UNL     H2   47   0.241  -0.435   0.102
    1UNL     H3   48   0.318  -0.470  -0.042
    1UNL     H4   49   0.306  -0.228  -0.213
    1UNL     H5   50   0.448  -0.210  -0.113
    1UNL     H6   51   0.325  -0.001  -0.211
    1UNL     H7   52   0.425   0.023   0.053
    1UNL     H8   53   0.178   0.117  -0.044
    1UNL     H9   54  -0.018  -0.050  -0.063
    1UNL    H10   55   0.110  -0.129  -0.184
    1UNL    H11   56  -0.109  -0.170   0.210
    1UNL    H12   57  -0.058  -0.260  -0.143
    1UNL    H13   58  -0.339  -0.148  -0.170
    1UNL    H14   59  -0.254  -0.231  -0.305
    1UNL    H15   60  -0.326   0.060  -0.277
    1UNL    H16   61  -0.459   0.123  -0.048
    1UNL    H17   62  -0.391   0.286   0.144
    1UNL    H18   63  -0.228   0.256   0.091
    1UNL    H19   64  -0.257   0.012   0.125
    1UNL    H20   65  -0.416   0.279  -0.227
    1UNL    H21   66  -0.475   0.399  -0.036
    1UNL    H22   67  -0.146   0.334  -0.095
    1UNL    H23   68  -0.215   0.499  -0.237
    1UNL    H24   69  -0.137   0.195  -0.371
    1UNL    H25   70  -0.003   0.180  -0.115
    1UNL    H26   71  -0.281  -0.420  -0.162
    1UNL    H27   72  -0.160  -0.581  -0.091
    1UNL    H28   73  -0.378  -0.330   0.046
    1UNL    H29   74  -0.279  -0.587   0.099
    1UNL    H30   75  -0.247  -0.344   0.258
    1UNL    H31   76  -0.039  -0.455   0.099
    1UNL    H32   77  -0.014   0.029   0.176
    1UNL    H33   78   0.089  -0.036   0.309
    1UNL    H34   79   0.265   0.308   0.348
    1UNL    H35   80   0.434   0.491   0.337
    1UNL    H36   81   0.457   0.630   0.142
    1UNL    H37   82   0.351   0.572  -0.063
    1UNL    H38   83   0.163   0.398  -0.046
   0.00000   0.00000   0.00000   0.00000   0.00000   0.00000   0.00000   0.00000   0.00000
Generated with MDTraj, t= 72.0
 83
    1UNL     C1    1   0.261  -0.417  -0.022
    1UNL     C2    2   0.269  -0.267   0.009
    1UNL     C3    3   0.352  -0.200  -0.108
    1UNL     C4    4   0.351  -0.044  -0.098
    1UNL     O1    5   0.461   0.005  -0.026
    1UNL     C5    6   0.209  -0.002  -0.034
    1UNL     C6    7   0.100  -0.095  -0.094
    1UNL     C7    8   0.137  -0.196   0.020
    1UNL     O2    9   0.040  -0.290   0.072
    1UNL     C8   10  -0.084  -0.231   0.111
    1UNL     O3   11  -0.150  -0.163   0.006
    1UNL     C9   12  -0.157  -0.255  -0.108
    1UNL    C10   13  -0.208  -0.177  -0.219
    1UNL     O4   14  -0.139  -0.057  -0.266
    1UNL    C11   15  -0.206   0.063  -0.228
    1UNL     O5   16  -0.252   0.058  -0.092
    1UNL    C12   17  -0.342   0.157  -0.039
    1UNL    C13   18  -0.294   0.186   0.106
    1UNL     O6   19  -0.320   0.076   0.189
    1UNL    C14   20  -0.338   0.283  -0.135
    1UNL     O7   21  -0.396   0.403  -0.086
    1UNL    C15   22  -0.197   0.313  -0.183
    1UNL     O8   23  -0.193   0.432  -0.259
    1UNL    C16   24  -0.122   0.198  -0.243
    1UNL     O9   25   0.019   0.189  -0.198
    1UNL    C17   26  -0.242  -0.386  -0.074
    1UNL    O10   27  -0.159  -0.502  -0.084
    1UNL    C18   28  -0.301  -0.375   0.071
    1UNL    O11   29  -0.357  -0.502   0.118
    1UNL    C19   30  -0.181  -0.344   0.163
    1UNL    O12   31  -0.102  -0.464   0.185
    1UNL    C20   32   0.182  -0.065   0.103
    1UNL    C21   33   0.085   0.019   0.190
    1UNL    O13   34   0.112   0.152   0.234
    1UNL    C22   35   0.078   0.250   0.143
    1UNL    O14   36  -0.020   0.243   0.069
    1UNL    C23   37   0.173   0.361   0.142
    1UNL    C24   38   0.273   0.373   0.243
    1UNL    C25   39   0.365   0.479   0.243
    1UNL    C26   40   0.360   0.565   0.142
    1UNL    C27   41   0.260   0.555   0.042
    1UNL    C28   42   0.170   0.458   0.045
    1UNL    C29   43   0.312  -0.110   0.171
    1UNL    O15   44   0.373  -0.031   0.239
    1UNL    O16   45   0.346  -0.234   0.130
    1UNL     H1   46   0.238  -0.426  -0.129
    1UNL     H2   47   0.192  -0.473   0.047
    1UNL     H3   48   0.354  -0.452   0.007
    1UNL     H4   49   0.324  -0.243  -0.209
    1UNL     H5   50   0.456  -0.222  -0.095
    1UNL     H6   51   0.361   0.000  -0.202
    1UNL     H7   52   0.442   0.000   0.069
    1UNL     H8   53   0.196   0.107  -0.035
    1UNL     H9   54  -0.005  -0.067  -0.082
    1UNL    H10   55   0.136  -0.117  -0.202
    1UNL    H11   56  -0.066  -0.166   0.187
    1UNL    H12   57  -0.057  -0.296  -0.133
    1UNL    H13   58  -0.309  -0.141  -0.188
    1UNL    H14   59  -0.219  -0.246  -0.304
    1UNL    H15   60  -0.285   0.064  -0.301
    1UNL    H16   61  -0.440   0.101  -0.049
    1UNL    H17   62  -0.360   0.272   0.144
    1UNL    H18   63  -0.191   0.222   0.127
    1UNL    H19   64  -0.285  -0.002   0.140
    1UNL    H20   65  -0.375   0.247  -0.233
    1UNL    H21   66  -0.475   0.370  -0.039
    1UNL    H22   67  -0.137   0.337  -0.088
    1UNL    H23   68  -0.247   0.502  -0.210
    1UNL    H24   69  -0.106   0.219  -0.354
    1UNL    H25   70   0.023   0.208  -0.107
    1UNL    H26   71  -0.314  -0.395  -0.156
    1UNL    H27   72  -0.212  -0.581  -0.060
    1UNL    H28   73  -0.384  -0.301   0.085
    1UNL    H29   74  -0.286  -0.551   0.169
    1UNL    H30   75  -0.211  -0.313   0.265
    1UNL    H31   76  -0.049  -0.473   0.106
    1UNL    H32   77  -0.000   0.020   0.129
    1UNL    H33   78   0.068  -0.038   0.282
    1UNL    H34   79   0.293   0.295   0.312
    1UNL    H35   80   0.445   0.472   0.321
    1UNL    H36   81   0.439   0.636   0.143
    1UNL    H37   82   0.270   0.616  -0.051
    1UNL    H38   83   0.086   0.454  -0.034
   0.00000   0.00000   0.00000   0.00000   0.00000   0.00000   0.00000   0.00000   0.00000
Generated with MDTraj, t= 73.0
 83
    1UNL     C1    1   0.285  -0.425  -0.013
    1UNL     C2    2   0.300  -0.275   0.009
    1UNL     C3    3   0.376  -0.201  -0.101
    1UNL     C4    4   0.362  -0.044  -0.102
    1UNL     O1    5   0.463   0.022  -0.023
    1UNL     C5    6   0.225  -0.011  -0.049
    1UNL     C6    7   0.109  -0.110  -0.095
    1UNL     C7    8   0.146  -0.203   0.024
    1UNL     O2    9   0.045  -0.284   0.084
    1UNL     C8   10  -0.081  -0.221   0.118
    1UNL     O3   11  -0.135  -0.150   0.006
    1UNL     C9   12  -0.169  -0.240  -0.102
    1UNL    C10   13  -0.205  -0.171  -0.233
    1UNL     O4   14  -0.130  -0.053  -0.274
    1UNL    C11   15  -0.204   0.057  -0.236
    1UNL     O5   16  -0.247   0.056  -0.097
    1UNL    C12   17  -0.347   0.146  -0.054
    1UNL    C13   18  -0.340   0.158   0.106
    1UNL     O6   19  -0.300   0.032   0.162
    1UNL    C14   20  -0.333   0.285  -0.131
    1UNL     O7   21  -0.385   0.402  -0.064
    1UNL    C15   22  -0.191   0.309  -0.180
    1UNL     O8   23  -0.181   0.424  -0.263
    1UNL    C16   24  -0.123   0.188  -0.248
    1UNL     O9   25   0.007   0.174  -0.191
    1UNL    C17   26  -0.267  -0.354  -0.061
    1UNL    O10   27  -0.229  -0.479  -0.117
    1UNL    C18   28  -0.308  -0.356   0.093
    1UNL    O11   29  -0.368  -0.486   0.117
    1UNL    C19   30  -0.183  -0.331   0.180
    1UNL    O12   31  -0.119  -0.459   0.190
    1UNL    C20   32   0.197  -0.075   0.091
    1UNL    C21   33   0.101   0.015   0.177
    1UNL    O13   34   0.165   0.139   0.204
    1UNL    C22   35   0.103   0.240   0.137
    1UNL    O14   36  -0.004   0.237   0.078
    1UNL    C23   37   0.182   0.363   0.141
    1UNL    C24   38   0.300   0.371   0.200
    1UNL    C25   39   0.367   0.495   0.208
    1UNL    C26   40   0.322   0.602   0.144
    1UNL    C27   41   0.203   0.593   0.072
    1UNL    C28   42   0.128   0.477   0.076
    1UNL    C29   43   0.308  -0.127   0.180
    1UNL    O15   44   0.342  -0.072   0.280
    1UNL    O16   45   0.362  -0.246   0.133
    1UNL     H1   46   0.219  -0.440  -0.101
    1UNL     H2   47   0.247  -0.468   0.082
    1UNL     H3   48   0.377  -0.474  -0.027
    1UNL     H4   49   0.343  -0.236  -0.201
    1UNL     H5   50   0.479  -0.233  -0.093
    1UNL     H6   51   0.378  -0.014  -0.211
    1UNL     H7   52   0.442   0.012   0.072
    1UNL     H8   53   0.209   0.097  -0.062
    1UNL     H9   54   0.009  -0.062  -0.085
    1UNL    H10   55   0.113  -0.162  -0.197
    1UNL    H11   56  -0.060  -0.155   0.200
    1UNL    H12   57  -0.074  -0.290  -0.121
    1UNL    H13   58  -0.315  -0.139  -0.222
    1UNL    H14   59  -0.201  -0.239  -0.323
    1UNL    H15   60  -0.289   0.058  -0.304
    1UNL    H16   61  -0.447   0.103  -0.077
    1UNL    H17   62  -0.431   0.190   0.168
    1UNL    H18   63  -0.266   0.233   0.135
    1UNL    H19   64  -0.251  -0.022   0.093
    1UNL    H20   65  -0.387   0.284  -0.227
    1UNL    H21   66  -0.471   0.387  -0.019
    1UNL    H22   67  -0.137   0.346  -0.085
    1UNL    H23   68  -0.253   0.491  -0.230
    1UNL    H24   69  -0.115   0.219  -0.356
    1UNL    H25   70  -0.005   0.180  -0.086
    1UNL    H26   71  -0.358  -0.324  -0.118
    1UNL    H27   72  -0.274  -0.545  -0.065
    1UNL    H28   73  -0.387  -0.285   0.118
    1UNL    H29   74  -0.319  -0.535   0.182
    1UNL    H30   75  -0.202  -0.304   0.283
    1UNL    H31   76  -0.024  -0.447   0.223
    1UNL    H32   77   0.005   0.030   0.136
    1UNL    H33   78   0.087  -0.035   0.273
    1UNL    H34   79   0.337   0.284   0.257
    1UNL    H35   80   0.458   0.501   0.267
    1UNL    H36   81   0.373   0.701   0.140
    1UNL    H37   82   0.167   0.685   0.034
    1UNL    H38   83   0.036   0.467   0.029
   0.00000   0.00000   0.00000   0.00000   0.00000   0.00000   0.00000   0.00000   0.00000
Generated with MDTraj, t= 74.0
 83
    1UNL     C1    1   0.262  -0.434   0.002
    1UNL     C2    2   0.291  -0.283   0.009
    1UNL     C3    3   0.381  -0.219  -0.104
    1UNL     C4    4   0.379  -0.060  -0.089
    1UNL     O1    5   0.490  -0.015  -0.005
    1UNL     C5    6   0.248  -0.011  -0.028
    1UNL     C6    7   0.131  -0.085  -0.090
    1UNL     C7    8   0.153  -0.201   0.019
    1UNL     O2    9   0.046  -0.286   0.053
    1UNL     C8   10  -0.076  -0.229   0.096
    1UNL     O3   11  -0.138  -0.165  -0.009
    1UNL     C9   12  -0.171  -0.256  -0.113
    1UNL    C10   13  -0.213  -0.180  -0.245
    1UNL     O4   14  -0.138  -0.068  -0.277
    1UNL    C11   15  -0.207   0.048  -0.245
    1UNL     O5   16  -0.257   0.040  -0.110
    1UNL    C12   17  -0.339   0.148  -0.058
    1UNL    C13   18  -0.312   0.153   0.089
    1UNL     O6   19  -0.338   0.027   0.151
    1UNL    C14   20  -0.330   0.286  -0.133
    1UNL     O7   21  -0.380   0.394  -0.053
    1UNL    C15   22  -0.182   0.309  -0.163
    1UNL     O8   23  -0.166   0.424  -0.245
    1UNL    C16   24  -0.121   0.180  -0.246
    1UNL     O9   25   0.011   0.162  -0.197
    1UNL    C17   26  -0.291  -0.344  -0.063
    1UNL    O10   27  -0.280  -0.477  -0.108
    1UNL    C18   28  -0.308  -0.343   0.094
    1UNL    O11   29  -0.376  -0.449   0.147
    1UNL    C19   30  -0.170  -0.342   0.160
    1UNL    O12   31  -0.111  -0.469   0.165
    1UNL    C20   32   0.206  -0.078   0.111
    1UNL    C21   33   0.118   0.019   0.190
    1UNL    O13   34   0.180   0.149   0.204
    1UNL    C22   35   0.111   0.248   0.141
    1UNL    O14   36   0.017   0.240   0.067
    1UNL    C23   37   0.170   0.386   0.153
    1UNL    C24   38   0.304   0.395   0.163
    1UNL    C25   39   0.360   0.520   0.160
    1UNL    C26   40   0.289   0.635   0.134
    1UNL    C27   41   0.153   0.625   0.122
    1UNL    C28   42   0.091   0.500   0.131
    1UNL    C29   43   0.321  -0.129   0.189
    1UNL    O15   44   0.384  -0.073   0.274
    1UNL    O16   45   0.354  -0.258   0.138
    1UNL     H1   46   0.197  -0.460  -0.082
    1UNL     H2   47   0.218  -0.466   0.095
    1UNL     H3   48   0.353  -0.500  -0.010
    1UNL     H4   49   0.325  -0.245  -0.194
    1UNL     H5   50   0.481  -0.263  -0.117
    1UNL     H6   51   0.402  -0.012  -0.188
    1UNL     H7   52   0.472  -0.035   0.090
    1UNL     H8   53   0.242   0.100  -0.038
    1UNL     H9   54   0.034  -0.026  -0.076
    1UNL    H10   55   0.137  -0.130  -0.191
    1UNL    H11   56  -0.049  -0.155   0.178
    1UNL    H12   57  -0.090  -0.328  -0.123
    1UNL    H13   58  -0.323  -0.149  -0.222
    1UNL    H14   59  -0.219  -0.250  -0.334
    1UNL    H15   60  -0.290   0.053  -0.317
    1UNL    H16   61  -0.440   0.108  -0.070
    1UNL    H17   62  -0.365   0.239   0.139
    1UNL    H18   63  -0.209   0.175   0.105
    1UNL    H19   64  -0.276  -0.042   0.116
    1UNL    H20   65  -0.397   0.274  -0.217
    1UNL    H21   66  -0.472   0.372  -0.022
    1UNL    H22   67  -0.124   0.335  -0.067
    1UNL    H23   68  -0.220   0.495  -0.218
    1UNL    H24   69  -0.104   0.201  -0.355
    1UNL    H25   70   0.012   0.187  -0.108
    1UNL    H26   71  -0.385  -0.297  -0.107
    1UNL    H27   72  -0.354  -0.525  -0.056
    1UNL    H28   73  -0.362  -0.254   0.123
    1UNL    H29   74  -0.308  -0.520   0.171
    1UNL    H30   75  -0.192  -0.310   0.260
    1UNL    H31   76  -0.059  -0.484   0.087
    1UNL    H32   77   0.018   0.034   0.157
    1UNL    H33   78   0.110  -0.023   0.293
    1UNL    H34   79   0.362   0.310   0.186
    1UNL    H35   80   0.463   0.530   0.190
    1UNL    H36   81   0.333   0.729   0.140
    1UNL    H37   82   0.088   0.714   0.118
    1UNL    H38   83  -0.017   0.509   0.122
   0.00000   0.00000   0.00000   0.00000   0.00000   0.00000   0.00000   0.00000   0.00000
Generated with MDTraj, t= 75.0
 83
    1UNL     C1    1   0.258  -0.428  -0.008
    1UNL     C2    2   0.289  -0.285   0.019
    1UNL     C3    3   0.391  -0.237  -0.087
    1UNL     C4    4   0.400  -0.081  -0.091
    1UNL     O1    5   0.511  -0.024  -0.019
    1UNL     C5    6   0.265  -0.014  -0.037
    1UNL     C6    7   0.145  -0.096  -0.103
    1UNL     C7    8   0.160  -0.192   0.019
    1UNL     O2    9   0.058  -0.271   0.091
    1UNL     C8   10  -0.074  -0.215   0.102
    1UNL     O3   11  -0.135  -0.155  -0.009
    1UNL     C9   12  -0.194  -0.244  -0.105
    1UNL    C10   13  -0.239  -0.174  -0.235
    1UNL     O4   14  -0.151  -0.078  -0.276
    1UNL    C11   15  -0.205   0.047  -0.237
    1UNL     O5   16  -0.274   0.037  -0.112
    1UNL    C12   17  -0.349   0.149  -0.056
    1UNL    C13   18  -0.308   0.158   0.087
    1UNL     O6   19  -0.295   0.035   0.145
    1UNL    C14   20  -0.322   0.285  -0.138
    1UNL     O7   21  -0.362   0.406  -0.071
    1UNL    C15   22  -0.170   0.296  -0.166
    1UNL     O8   23  -0.141   0.411  -0.238
    1UNL    C16   24  -0.108   0.166  -0.236
    1UNL     O9   25   0.016   0.137  -0.183
    1UNL    C17   26  -0.305  -0.336  -0.055
    1UNL    O10   27  -0.277  -0.470  -0.099
    1UNL    C18   28  -0.314  -0.326   0.101
    1UNL    O11   29  -0.386  -0.433   0.144
    1UNL    C19   30  -0.168  -0.334   0.153
    1UNL    O12   31  -0.127  -0.462   0.115
    1UNL    C20   32   0.223  -0.072   0.103
    1UNL    C21   33   0.128   0.017   0.182
    1UNL    O13   34   0.183   0.147   0.199
    1UNL    C22   35   0.103   0.245   0.144
    1UNL    O14   36   0.000   0.224   0.089
    1UNL    C23   37   0.155   0.383   0.141
    1UNL    C24   38   0.294   0.413   0.115
    1UNL    C25   39   0.339   0.543   0.125
    1UNL    C26   40   0.244   0.639   0.164
    1UNL    C27   41   0.114   0.617   0.172
    1UNL    C28   42   0.067   0.485   0.154
    1UNL    C29   43   0.333  -0.138   0.185
    1UNL    O15   44   0.394  -0.071   0.262
    1UNL    O16   45   0.356  -0.267   0.146
    1UNL     H1   46   0.258  -0.463  -0.111
    1UNL     H2   47   0.176  -0.465   0.048
    1UNL     H3   48   0.351  -0.484   0.036
    1UNL     H4   49   0.376  -0.291  -0.177
    1UNL     H5   50   0.495  -0.262  -0.053
    1UNL     H6   51   0.400  -0.031  -0.189
    1UNL     H7   52   0.490  -0.031   0.077
    1UNL     H8   53   0.259   0.097  -0.028
    1UNL     H9   54   0.038  -0.054  -0.110
    1UNL    H10   55   0.173  -0.137  -0.199
    1UNL    H11   56  -0.060  -0.129   0.178
    1UNL    H12   57  -0.110  -0.310  -0.127
    1UNL    H13   58  -0.341  -0.123  -0.215
    1UNL    H14   59  -0.264  -0.250  -0.316
    1UNL    H15   60  -0.288   0.062  -0.310
    1UNL    H16   61  -0.449   0.110  -0.070
    1UNL    H17   62  -0.390   0.211   0.140
    1UNL    H18   63  -0.217   0.210   0.096
    1UNL    H19   64  -0.249  -0.022   0.077
    1UNL    H20   65  -0.380   0.277  -0.231
    1UNL    H21   66  -0.455   0.412  -0.037
    1UNL    H22   67  -0.108   0.322  -0.071
    1UNL    H23   68  -0.186   0.491  -0.195
    1UNL    H24   69  -0.081   0.182  -0.341
    1UNL    H25   70   0.020   0.161  -0.080
    1UNL    H26   71  -0.401  -0.293  -0.102
    1UNL    H27   72  -0.340  -0.530  -0.060
    1UNL    H28   73  -0.366  -0.239   0.134
    1UNL    H29   74  -0.330  -0.514   0.142
    1UNL    H30   75  -0.185  -0.327   0.258
    1UNL    H31   76  -0.112  -0.472   0.018
    1UNL    H32   77   0.035   0.036   0.129
    1UNL    H33   78   0.099  -0.019   0.285
    1UNL    H34   79   0.354   0.327   0.085
    1UNL    H35   80   0.443   0.573   0.111
    1UNL    H36   81   0.295   0.737   0.180
    1UNL    H37   82   0.046   0.698   0.169
    1UNL    H38   83  -0.046   0.471   0.156
   0.00000   0.00000   0.00000   0.00000   0.00000   0.00000   0.00000   0.00000   0.00000
Generated with MDTraj, t= 76.0
 83
    1UNL     C1    1   0.285  -0.459   0.016
    1UNL     C2    2   0.305  -0.303   0.013
    1UNL     C3    3   0.393  -0.244  -0.098
    1UNL     C4    4   0.387  -0.093  -0.100
    1UNL     O1    5   0.498  -0.033  -0.035
    1UNL     C5    6   0.245  -0.040  -0.047
    1UNL     C6    7   0.127  -0.133  -0.092
    1UNL     C7    8   0.167  -0.222   0.027
    1UNL     O2    9   0.061  -0.305   0.073
    1UNL     C8   10  -0.061  -0.231   0.099
    1UNL     O3   11  -0.122  -0.160  -0.010
    1UNL     C9   12  -0.177  -0.241  -0.118
    1UNL    C10   13  -0.224  -0.175  -0.245
    1UNL     O4   14  -0.142  -0.067  -0.273
    1UNL    C11   15  -0.203   0.064  -0.240
    1UNL     O5   16  -0.269   0.057  -0.113
    1UNL    C12   17  -0.343   0.175  -0.058
    1UNL    C13   18  -0.303   0.180   0.093
    1UNL     O6   19  -0.293   0.054   0.147
    1UNL    C14   20  -0.305   0.309  -0.144
    1UNL     O7   21  -0.343   0.428  -0.077
    1UNL    C15   22  -0.156   0.308  -0.180
    1UNL     O8   23  -0.134   0.413  -0.262
    1UNL    C16   24  -0.096   0.180  -0.235
    1UNL     O9   25   0.012   0.129  -0.158
    1UNL    C17   26  -0.295  -0.325  -0.059
    1UNL    O10   27  -0.275  -0.466  -0.082
    1UNL    C18   28  -0.309  -0.311   0.098
    1UNL    O11   29  -0.389  -0.414   0.146
    1UNL    C19   30  -0.165  -0.331   0.163
    1UNL    O12   31  -0.129  -0.467   0.146
    1UNL    C20   32   0.218  -0.086   0.101
    1UNL    C21   33   0.129   0.013   0.168
    1UNL    O13   34   0.188   0.141   0.159
    1UNL    C22   35   0.094   0.239   0.145
    1UNL    O14   36  -0.018   0.215   0.115
    1UNL    C23   37   0.133   0.383   0.159
    1UNL    C24   38   0.263   0.416   0.118
    1UNL    C25   39   0.302   0.542   0.109
    1UNL    C26   40   0.210   0.639   0.161
    1UNL    C27   41   0.083   0.613   0.199
    1UNL    C28   42   0.041   0.481   0.197
    1UNL    C29   43   0.342  -0.136   0.180
    1UNL    O15   44   0.396  -0.056   0.255
    1UNL    O16   45   0.375  -0.261   0.138
    1UNL     H1   46   0.200  -0.493  -0.046
    1UNL     H2   47   0.275  -0.498   0.116
    1UNL     H3   48   0.365  -0.519  -0.038
    1UNL     H4   49   0.373  -0.288  -0.193
    1UNL     H5   50   0.498  -0.275  -0.076
    1UNL     H6   51   0.395  -0.055  -0.202
    1UNL     H7   52   0.485  -0.030   0.063
    1UNL     H8   53   0.228   0.070  -0.072
    1UNL     H9   54   0.028  -0.079  -0.095
    1UNL    H10   55   0.147  -0.168  -0.192
    1UNL    H11   56  -0.018  -0.151   0.174
    1UNL    H12   57  -0.094  -0.309  -0.142
    1UNL    H13   58  -0.334  -0.145  -0.239
    1UNL    H14   59  -0.220  -0.240  -0.335
    1UNL    H15   60  -0.290   0.075  -0.310
    1UNL    H16   61  -0.447   0.151  -0.056
    1UNL    H17   62  -0.370   0.239   0.158
    1UNL    H18   63  -0.205   0.221   0.091
    1UNL    H19   64  -0.241  -0.009   0.089
    1UNL    H20   65  -0.374   0.313  -0.229
    1UNL    H21   66  -0.438   0.430  -0.049
    1UNL    H22   67  -0.096   0.337  -0.085
    1UNL    H23   68  -0.184   0.493  -0.216
    1UNL    H24   69  -0.060   0.205  -0.334
    1UNL    H25   70  -0.016   0.124  -0.069
    1UNL    H26   71  -0.395  -0.286  -0.105
    1UNL    H27   72  -0.336  -0.516  -0.026
    1UNL    H28   73  -0.357  -0.221   0.134
    1UNL    H29   74  -0.340  -0.480   0.196
    1UNL    H30   75  -0.176  -0.320   0.270
    1UNL    H31   76  -0.064  -0.481   0.072
    1UNL    H32   77   0.028   0.018   0.123
    1UNL    H33   78   0.111  -0.002   0.280
    1UNL    H34   79   0.331   0.337   0.093
    1UNL    H35   80   0.398   0.564   0.063
    1UNL    H36   81   0.239   0.739   0.145
    1UNL    H37   82   0.011   0.701   0.212
    1UNL    H38   83  -0.059   0.463   0.206
   0.00000   0.00000   0.00000   0.00000   0.00000   0.00000   0.00000   0.00000   0.00000
Generated with MDTraj, t= 77.0
 83
    1UNL     C1    1   0.269  -0.450   0.019
    1UNL     C2    2   0.301  -0.303   0.009
    1UNL     C3    3   0.402  -0.263  -0.104
    1UNL     C4    4   0.395  -0.110  -0.126
    1UNL     O1    5   0.501  -0.045  -0.061
    1UNL     C5    6   0.253  -0.058  -0.082
    1UNL     C6    7   0.132  -0.146  -0.121
    1UNL     C7    8   0.159  -0.226   0.009
    1UNL     O2    9   0.052  -0.299   0.077
    1UNL     C8   10  -0.068  -0.231   0.119
    1UNL     O3   11  -0.130  -0.156   0.012
    1UNL     C9   12  -0.170  -0.240  -0.101
    1UNL    C10   13  -0.207  -0.160  -0.223
    1UNL     O4   14  -0.113  -0.055  -0.259
    1UNL    C11   15  -0.169   0.072  -0.230
    1UNL     O5   16  -0.239   0.067  -0.110
    1UNL    C12   17  -0.321   0.183  -0.071
    1UNL    C13   18  -0.318   0.194   0.081
    1UNL     O6   19  -0.331   0.060   0.135
    1UNL    C14   20  -0.294   0.317  -0.146
    1UNL     O7   21  -0.341   0.426  -0.068
    1UNL    C15   22  -0.143   0.320  -0.180
    1UNL     O8   23  -0.122   0.413  -0.287
    1UNL    C16   24  -0.066   0.190  -0.224
    1UNL     O9   25   0.033   0.150  -0.131
    1UNL    C17   26  -0.287  -0.333  -0.047
    1UNL    O10   27  -0.252  -0.465  -0.078
    1UNL    C18   28  -0.309  -0.314   0.105
    1UNL    O11   29  -0.400  -0.403   0.149
    1UNL    C19   30  -0.168  -0.331   0.185
    1UNL    O12   31  -0.116  -0.464   0.189
    1UNL    C20   32   0.215  -0.092   0.066
    1UNL    C21   33   0.123   0.009   0.135
    1UNL    O13   34   0.183   0.137   0.156
    1UNL    C22   35   0.082   0.230   0.153
    1UNL    O14   36  -0.036   0.204   0.141
    1UNL    C23   37   0.120   0.372   0.166
    1UNL    C24   38   0.241   0.409   0.120
    1UNL    C25   39   0.272   0.545   0.115
    1UNL    C26   40   0.185   0.637   0.162
    1UNL    C27   41   0.057   0.601   0.209
    1UNL    C28   42   0.022   0.469   0.206
    1UNL    C29   43   0.336  -0.133   0.154
    1UNL    O15   44   0.392  -0.048   0.223
    1UNL    O16   45   0.373  -0.263   0.133
    1UNL     H1   46   0.278  -0.496  -0.084
    1UNL     H2   47   0.167  -0.463   0.065
    1UNL     H3   48   0.340  -0.509   0.075
    1UNL     H4   49   0.381  -0.312  -0.197
    1UNL     H5   50   0.500  -0.311  -0.077
    1UNL     H6   51   0.424  -0.107  -0.232
    1UNL     H7   52   0.489  -0.037   0.036
    1UNL     H8   53   0.232   0.051  -0.107
    1UNL     H9   54   0.036  -0.093  -0.116
    1UNL    H10   55   0.143  -0.223  -0.201
    1UNL    H11   56  -0.029  -0.156   0.202
    1UNL    H12   57  -0.088  -0.312  -0.123
    1UNL    H13   58  -0.303  -0.109  -0.203
    1UNL    H14   59  -0.231  -0.223  -0.307
    1UNL    H15   60  -0.248   0.084  -0.309
    1UNL    H16   61  -0.424   0.148  -0.081
    1UNL    H17   62  -0.409   0.245   0.108
    1UNL    H18   63  -0.234   0.243   0.128
    1UNL    H19   64  -0.261   0.006   0.093
    1UNL    H20   65  -0.345   0.300  -0.245
    1UNL    H21   66  -0.439   0.421  -0.063
    1UNL    H22   67  -0.083   0.361  -0.090
    1UNL    H23   68  -0.175   0.496  -0.268
    1UNL    H24   69  -0.010   0.199  -0.314
    1UNL    H25   70   0.002   0.162  -0.033
    1UNL    H26   71  -0.388  -0.314  -0.103
    1UNL    H27   72  -0.323  -0.536  -0.059
    1UNL    H28   73  -0.343  -0.213   0.127
    1UNL    H29   74  -0.358  -0.471   0.211
    1UNL    H30   75  -0.189  -0.306   0.291
    1UNL    H31   76  -0.133  -0.506   0.104
    1UNL    H32   77   0.026   0.022   0.081
    1UNL    H33   78   0.082  -0.026   0.236
    1UNL    H34   79   0.319   0.334   0.123
    1UNL    H35   80   0.368   0.584   0.086
    1UNL    H36   81   0.213   0.742   0.163
    1UNL    H37   82  -0.010   0.667   0.241
    1UNL    H38   83  -0.076   0.425   0.239
   0.00000   0.00000   0.00000   0.00000   0.00000   0.00000   0.00000   0.00000   0.00000
Generated with MDTraj, t= 78.0
 83
    1UNL     C1    1   0.257  -0.474   0.018
    1UNL     C2    2   0.286  -0.322   0.013
    1UNL     C3    3   0.367  -0.280  -0.119
    1UNL     C4    4   0.374  -0.121  -0.137
    1UNL     O1    5   0.496  -0.064  -0.087
    1UNL     C5    6   0.245  -0.057  -0.076
    1UNL     C6    7   0.128  -0.146  -0.113
    1UNL     C7    8   0.156  -0.225   0.018
    1UNL     O2    9   0.047  -0.286   0.089
    1UNL     C8   10  -0.067  -0.213   0.117
    1UNL     O3   11  -0.131  -0.135   0.015
    1UNL     C9   12  -0.162  -0.226  -0.088
    1UNL    C10   13  -0.196  -0.160  -0.220
    1UNL     O4   14  -0.099  -0.055  -0.250
    1UNL    C11   15  -0.158   0.063  -0.212
    1UNL     O5   16  -0.225   0.071  -0.091
    1UNL    C12   17  -0.324   0.179  -0.080
    1UNL    C13   18  -0.346   0.200   0.066
    1UNL     O6   19  -0.361   0.076   0.138
    1UNL    C14   20  -0.279   0.311  -0.156
    1UNL     O7   21  -0.328   0.434  -0.096
    1UNL    C15   22  -0.128   0.315  -0.169
    1UNL     O8   23  -0.100   0.418  -0.269
    1UNL    C16   24  -0.058   0.183  -0.228
    1UNL     O9   25   0.052   0.152  -0.154
    1UNL    C17   26  -0.263  -0.335  -0.038
    1UNL    O10   27  -0.222  -0.462  -0.071
    1UNL    C18   28  -0.296  -0.314   0.114
    1UNL    O11   29  -0.384  -0.416   0.150
    1UNL    C19   30  -0.158  -0.315   0.187
    1UNL    O12   31  -0.106  -0.444   0.192
    1UNL    C20   32   0.219  -0.092   0.072
    1UNL    C21   33   0.121   0.015   0.137
    1UNL    O13   34   0.164   0.146   0.119
    1UNL    C22   35   0.062   0.229   0.157
    1UNL    O14   36  -0.053   0.194   0.177
    1UNL    C23   37   0.098   0.371   0.156
    1UNL    C24   38   0.225   0.413   0.128
    1UNL    C25   39   0.258   0.549   0.137
    1UNL    C26   40   0.173   0.645   0.184
    1UNL    C27   41   0.043   0.593   0.214
    1UNL    C28   42   0.004   0.466   0.193
    1UNL    C29   43   0.347  -0.140   0.140
    1UNL    O15   44   0.420  -0.069   0.210
    1UNL    O16   45   0.371  -0.271   0.112
    1UNL     H1   46   0.164  -0.496  -0.044
    1UNL     H2   47   0.244  -0.493   0.131
    1UNL     H3   48   0.332  -0.536  -0.025
    1UNL     H4   49   0.353  -0.338  -0.211
    1UNL     H5   50   0.469  -0.309  -0.094
    1UNL     H6   51   0.381  -0.102  -0.249
    1UNL     H7   52   0.499  -0.069   0.011
    1UNL     H8   53   0.230   0.056  -0.093
    1UNL     H9   54   0.036  -0.095  -0.105
    1UNL    H10   55   0.139  -0.207  -0.207
    1UNL    H11   56  -0.046  -0.138   0.204
    1UNL    H12   57  -0.063  -0.273  -0.107
    1UNL    H13   58  -0.297  -0.124  -0.218
    1UNL    H14   59  -0.190  -0.227  -0.301
    1UNL    H15   60  -0.234   0.082  -0.291
    1UNL    H16   61  -0.423   0.146  -0.120
    1UNL    H17   62  -0.430   0.262   0.086
    1UNL    H18   63  -0.263   0.260   0.099
    1UNL    H19   64  -0.283   0.017   0.110
    1UNL    H20   65  -0.309   0.310  -0.263
    1UNL    H21   66  -0.424   0.452  -0.082
    1UNL    H22   67  -0.092   0.352  -0.065
    1UNL    H23   68  -0.151   0.493  -0.244
    1UNL    H24   69  -0.036   0.201  -0.330
    1UNL    H25   70   0.026   0.168  -0.066
    1UNL    H26   71  -0.369  -0.317  -0.086
    1UNL    H27   72  -0.290  -0.527  -0.050
    1UNL    H28   73  -0.347  -0.215   0.125
    1UNL    H29   74  -0.338  -0.500   0.164
    1UNL    H30   75  -0.175  -0.285   0.294
    1UNL    H31   76  -0.073  -0.464   0.102
    1UNL    H32   77   0.020   0.005   0.095
    1UNL    H33   78   0.102  -0.002   0.247
    1UNL    H34   79   0.303   0.345   0.094
    1UNL    H35   80   0.365   0.567   0.145
    1UNL    H36   81   0.194   0.748   0.203
    1UNL    H37   82  -0.037   0.667   0.249
    1UNL    H38   83  -0.094   0.430   0.208
   0.00000   0.00000   0.00000   0.00000   0.00000   0.00000   0.00000   0.00000   0.00000
Generated with MDTraj, t= 79.0
 83
    1UNL     C1    1   0.248  -0.461   0.018
    1UNL     C2    2   0.283  -0.311   0.001
    1UNL     C3    3   0.355  -0.283  -0.134
    1UNL     C4    4   0.378  -0.129  -0.149
    1UNL     O1    5   0.501  -0.082  -0.100
    1UNL     C5    6   0.253  -0.053  -0.079
    1UNL     C6    7   0.122  -0.139  -0.114
    1UNL     C7    8   0.159  -0.215   0.019
    1UNL     O2    9   0.049  -0.287   0.093
    1UNL     C8   10  -0.071  -0.223   0.131
    1UNL     O3   11  -0.123  -0.150   0.014
    1UNL     C9   12  -0.162  -0.238  -0.086
    1UNL    C10   13  -0.214  -0.161  -0.207
    1UNL     O4   14  -0.117  -0.063  -0.248
    1UNL    C11   15  -0.168   0.071  -0.237
    1UNL     O5   16  -0.234   0.078  -0.109
    1UNL    C12   17  -0.325   0.192  -0.085
    1UNL    C13   18  -0.324   0.201   0.066
    1UNL     O6   19  -0.349   0.080   0.118
    1UNL    C14   20  -0.271   0.318  -0.170
    1UNL     O7   21  -0.310   0.450  -0.117
    1UNL    C15   22  -0.124   0.313  -0.164
    1UNL     O8   23  -0.069   0.435  -0.213
    1UNL    C16   24  -0.064   0.195  -0.244
    1UNL     O9   25   0.052   0.151  -0.181
    1UNL    C17   26  -0.262  -0.345  -0.036
    1UNL    O10   27  -0.219  -0.477  -0.042
    1UNL    C18   28  -0.306  -0.329   0.112
    1UNL    O11   29  -0.375  -0.449   0.145
    1UNL    C19   30  -0.173  -0.323   0.195
    1UNL    O12   31  -0.127  -0.452   0.225
    1UNL    C20   32   0.223  -0.083   0.073
    1UNL    C21   33   0.133   0.023   0.136
    1UNL    O13   34   0.177   0.152   0.115
    1UNL    C22   35   0.073   0.231   0.154
    1UNL    O14   36  -0.039   0.186   0.167
    1UNL    C23   37   0.096   0.373   0.166
    1UNL    C24   38   0.226   0.425   0.149
    1UNL    C25   39   0.251   0.563   0.164
    1UNL    C26   40   0.144   0.650   0.180
    1UNL    C27   41   0.019   0.593   0.210
    1UNL    C28   42  -0.002   0.459   0.199
    1UNL    C29   43   0.348  -0.136   0.144
    1UNL    O15   44   0.421  -0.065   0.208
    1UNL    O16   45   0.373  -0.266   0.110
    1UNL     H1   46   0.200  -0.499  -0.076
    1UNL     H2   47   0.185  -0.467   0.112
    1UNL     H3   48   0.341  -0.521   0.024
    1UNL     H4   49   0.280  -0.323  -0.205
    1UNL     H5   50   0.447  -0.332  -0.153
    1UNL     H6   51   0.372  -0.089  -0.255
    1UNL     H7   52   0.491  -0.083  -0.002
    1UNL     H8   53   0.258   0.060  -0.103
    1UNL     H9   54   0.044  -0.069  -0.103
    1UNL    H10   55   0.129  -0.179  -0.216
    1UNL    H11   56  -0.049  -0.150   0.217
    1UNL    H12   57  -0.069  -0.290  -0.118
    1UNL    H13   58  -0.304  -0.108  -0.184
    1UNL    H14   59  -0.234  -0.228  -0.284
    1UNL    H15   60  -0.236   0.089  -0.321
    1UNL    H16   61  -0.429   0.170  -0.122
    1UNL    H17   62  -0.387   0.280   0.106
    1UNL    H18   63  -0.227   0.232   0.097
    1UNL    H19   64  -0.284   0.012   0.083
    1UNL    H20   65  -0.308   0.293  -0.272
    1UNL    H21   66  -0.408   0.449  -0.126
    1UNL    H22   67  -0.087   0.294  -0.056
    1UNL    H23   68  -0.121   0.512  -0.187
    1UNL    H24   69  -0.040   0.224  -0.342
    1UNL    H25   70   0.050   0.152  -0.080
    1UNL    H26   71  -0.361  -0.343  -0.100
    1UNL    H27   72  -0.291  -0.535  -0.016
    1UNL    H28   73  -0.366  -0.232   0.119
    1UNL    H29   74  -0.344  -0.495   0.227
    1UNL    H30   75  -0.193  -0.282   0.300
    1UNL    H31   76  -0.127  -0.505   0.143
    1UNL    H32   77   0.033   0.012   0.100
    1UNL    H33   78   0.132   0.009   0.246
    1UNL    H34   79   0.308   0.359   0.132
    1UNL    H35   80   0.354   0.595   0.149
    1UNL    H36   81   0.151   0.762   0.193
    1UNL    H37   82  -0.064   0.670   0.214
    1UNL    H38   83  -0.101   0.412   0.193
   0.00000   0.00000   0.00000   0.00000   0.00000   0.00000   0.00000   0.00000   0.00000
Generated with MDTraj, t= 80.0
 83
    1UNL     C1    1   0.246  -0.469   0.015
    1UNL     C2    2   0.283  -0.315   0.010
    1UNL     C3    3   0.365  -0.280  -0.116
    1UNL     C4    4   0.375  -0.129  -0.145
    1UNL     O1    5   0.492  -0.064  -0.101
    1UNL     C5    6   0.245  -0.060  -0.098
    1UNL     C6    7   0.118  -0.148  -0.124
    1UNL     C7    8   0.151  -0.220   0.008
    1UNL     O2    9   0.045  -0.287   0.083
    1UNL     C8   10  -0.067  -0.210   0.126
    1UNL     O3   11  -0.132  -0.144   0.012
    1UNL     C9   12  -0.168  -0.231  -0.092
    1UNL    C10   13  -0.219  -0.157  -0.221
    1UNL     O4   14  -0.131  -0.063  -0.260
    1UNL    C11   15  -0.178   0.067  -0.235
    1UNL     O5   16  -0.261   0.067  -0.115
    1UNL    C12   17  -0.328   0.190  -0.083
    1UNL    C13   18  -0.331   0.209   0.067
    1UNL     O6   19  -0.334   0.090   0.131
    1UNL    C14   20  -0.263   0.313  -0.160
    1UNL     O7   21  -0.290   0.440  -0.083
    1UNL    C15   22  -0.116   0.294  -0.162
    1UNL     O8   23  -0.047   0.411  -0.201
    1UNL    C16   24  -0.062   0.172  -0.231
    1UNL     O9   25   0.054   0.127  -0.165
    1UNL    C17   26  -0.265  -0.340  -0.043
    1UNL    O10   27  -0.198  -0.466  -0.056
    1UNL    C18   28  -0.297  -0.325   0.110
    1UNL    O11   29  -0.366  -0.440   0.152
    1UNL    C19   30  -0.165  -0.307   0.199
    1UNL    O12   31  -0.109  -0.432   0.217
    1UNL    C20   32   0.219  -0.094   0.058
    1UNL    C21   33   0.136   0.007   0.136
    1UNL    O13   34   0.186   0.142   0.152
    1UNL    C22   35   0.082   0.231   0.144
    1UNL    O14   36  -0.034   0.197   0.122
    1UNL    C23   37   0.095   0.380   0.159
    1UNL    C24   38   0.224   0.433   0.150
    1UNL    C25   39   0.245   0.568   0.170
    1UNL    C26   40   0.137   0.653   0.195
    1UNL    C27   41   0.004   0.605   0.197
    1UNL    C28   42  -0.009   0.469   0.188
    1UNL    C29   43   0.342  -0.138   0.141
    1UNL    O15   44   0.413  -0.059   0.196
    1UNL    O16   45   0.354  -0.278   0.133
    1UNL     H1   46   0.196  -0.512  -0.074
    1UNL     H2   47   0.199  -0.487   0.113
    1UNL     H3   48   0.349  -0.527   0.018
    1UNL     H4   49   0.319  -0.329  -0.205
    1UNL     H5   50   0.458  -0.324  -0.095
    1UNL     H6   51   0.372  -0.100  -0.253
    1UNL     H7   52   0.471  -0.038  -0.008
    1UNL     H8   53   0.234   0.049  -0.135
    1UNL     H9   54   0.025  -0.092  -0.115
    1UNL    H10   55   0.120  -0.214  -0.208
    1UNL    H11   56  -0.037  -0.135   0.202
    1UNL    H12   57  -0.078  -0.290  -0.115
    1UNL    H13   58  -0.308  -0.106  -0.187
    1UNL    H14   59  -0.247  -0.213  -0.306
    1UNL    H15   60  -0.243   0.097  -0.316
    1UNL    H16   61  -0.433   0.193  -0.126
    1UNL    H17   62  -0.420   0.264   0.099
    1UNL    H18   63  -0.252   0.273   0.104
    1UNL    H19   64  -0.282   0.026   0.074
    1UNL    H20   65  -0.297   0.327  -0.263
    1UNL    H21   66  -0.384   0.467  -0.086
    1UNL    H22   67  -0.086   0.285  -0.052
    1UNL    H23   68  -0.098   0.491  -0.159
    1UNL    H24   69  -0.044   0.198  -0.330
    1UNL    H25   70   0.046   0.151  -0.064
    1UNL    H26   71  -0.360  -0.363  -0.108
    1UNL    H27   72  -0.241  -0.544  -0.007
    1UNL    H28   73  -0.359  -0.230   0.131
    1UNL    H29   74  -0.336  -0.473   0.242
    1UNL    H30   75  -0.183  -0.269   0.306
    1UNL    H31   76  -0.024  -0.442   0.165
    1UNL    H32   77   0.045   0.016   0.084
    1UNL    H33   78   0.124  -0.023   0.239
    1UNL    H34   79   0.305   0.360   0.151
    1UNL    H35   80   0.341   0.615   0.169
    1UNL    H36   81   0.148   0.757   0.197
    1UNL    H37   82  -0.081   0.654   0.203
    1UNL    H38   83  -0.108   0.426   0.184
   0.00000   0.00000   0.00000   0.00000   0.00000   0.00000   0.00000   0.00000   0.00000
Generated with MDTraj, t= 81.0
 83
    1UNL     C1    1   0.262  -0.457   0.024
    1UNL     C2    2   0.291  -0.309   0.009
    1UNL     C3    3   0.371  -0.270  -0.123
    1UNL     C4    4   0.387  -0.111  -0.136
    1UNL     O1    5   0.508  -0.067  -0.070
    1UNL     C5    6   0.253  -0.049  -0.078
    1UNL     C6    7   0.132  -0.136  -0.113
    1UNL     C7    8   0.157  -0.218   0.019
    1UNL     O2    9   0.051  -0.286   0.086
    1UNL     C8   10  -0.071  -0.208   0.112
    1UNL     O3   11  -0.145  -0.142   0.004
    1UNL     C9   12  -0.177  -0.234  -0.095
    1UNL    C10   13  -0.230  -0.155  -0.226
    1UNL     O4   14  -0.150  -0.057  -0.270
    1UNL    C11   15  -0.191   0.074  -0.237
    1UNL     O5   16  -0.260   0.076  -0.110
    1UNL    C12   17  -0.330   0.200  -0.064
    1UNL    C13   18  -0.319   0.181   0.085
    1UNL     O6   19  -0.346   0.041   0.128
    1UNL    C14   20  -0.263   0.324  -0.138
    1UNL     O7   21  -0.288   0.439  -0.061
    1UNL    C15   22  -0.113   0.312  -0.167
    1UNL     O8   23  -0.066   0.411  -0.255
    1UNL    C16   24  -0.073   0.174  -0.234
    1UNL     O9   25   0.029   0.119  -0.152
    1UNL    C17   26  -0.266  -0.355  -0.050
    1UNL    O10   27  -0.199  -0.474  -0.061
    1UNL    C18   28  -0.304  -0.326   0.096
    1UNL    O11   29  -0.387  -0.417   0.162
    1UNL    C19   30  -0.173  -0.298   0.189
    1UNL    O12   31  -0.118  -0.422   0.223
    1UNL    C20   32   0.231  -0.093   0.071
    1UNL    C21   33   0.141   0.010   0.138
    1UNL    O13   34   0.180   0.144   0.123
    1UNL    C22   35   0.073   0.229   0.125
    1UNL    O14   36  -0.043   0.188   0.116
    1UNL    C23   37   0.100   0.375   0.148
    1UNL    C24   38   0.230   0.419   0.150
    1UNL    C25   39   0.262   0.551   0.174
    1UNL    C26   40   0.152   0.639   0.205
    1UNL    C27   41   0.022   0.602   0.185
    1UNL    C28   42  -0.006   0.467   0.163
    1UNL    C29   43   0.353  -0.138   0.150
    1UNL    O15   44   0.418  -0.060   0.214
    1UNL    O16   45   0.372  -0.271   0.118
    1UNL     H1   46   0.175  -0.478  -0.044
    1UNL     H2   47   0.240  -0.482   0.129
    1UNL     H3   48   0.344  -0.530  -0.011
    1UNL     H4   49   0.321  -0.323  -0.207
    1UNL     H5   50   0.469  -0.308  -0.110
    1UNL     H6   51   0.415  -0.093  -0.241
    1UNL     H7   52   0.490  -0.048   0.025
    1UNL     H8   53   0.241   0.061  -0.110
    1UNL     H9   54   0.028  -0.093  -0.109
    1UNL    H10   55   0.142  -0.201  -0.194
    1UNL    H11   56  -0.045  -0.129   0.176
    1UNL    H12   57  -0.080  -0.271  -0.125
    1UNL    H13   58  -0.327  -0.104  -0.210
    1UNL    H14   59  -0.247  -0.226  -0.306
    1UNL    H15   60  -0.260   0.106  -0.313
    1UNL    H16   61  -0.436   0.183  -0.094
    1UNL    H17   62  -0.385   0.246   0.148
    1UNL    H18   63  -0.218   0.207   0.115
    1UNL    H19   64  -0.273  -0.017   0.089
    1UNL    H20   65  -0.307   0.333  -0.238
    1UNL    H21   66  -0.384   0.444  -0.043
    1UNL    H22   67  -0.059   0.324  -0.073
    1UNL    H23   68  -0.079   0.494  -0.212
    1UNL    H24   69  -0.035   0.183  -0.331
    1UNL    H25   70   0.012   0.145  -0.064
    1UNL    H26   71  -0.364  -0.356  -0.110
    1UNL    H27   72  -0.230  -0.539   0.006
    1UNL    H28   73  -0.373  -0.233   0.094
    1UNL    H29   74  -0.333  -0.482   0.208
    1UNL    H30   75  -0.200  -0.249   0.289
    1UNL    H31   76  -0.051  -0.446   0.159
    1UNL    H32   77   0.045   0.010   0.095
    1UNL    H33   78   0.137  -0.024   0.241
    1UNL    H34   79   0.305   0.343   0.145
    1UNL    H35   80   0.364   0.585   0.196
    1UNL    H36   81   0.168   0.747   0.223
    1UNL    H37   82  -0.066   0.676   0.177
    1UNL    H38   83  -0.104   0.427   0.167
   0.00000   0.00000   0.00000   0.00000   0.00000   0.00000   0.00000   0.00000   0.00000
Generated with MDTraj, t= 82.0
 83
    1UNL     C1    1   0.257  -0.457   0.019
    1UNL     C2    2   0.301  -0.311   0.010
    1UNL     C3    3   0.393  -0.273  -0.113
    1UNL     C4    4   0.393  -0.119  -0.126
    1UNL     O1    5   0.509  -0.059  -0.074
    1UNL     C5    6   0.262  -0.051  -0.069
    1UNL     C6    7   0.137  -0.144  -0.119
    1UNL     C7    8   0.165  -0.225   0.013
    1UNL     O2    9   0.054  -0.293   0.082
    1UNL     C8   10  -0.064  -0.220   0.113
    1UNL     O3   11  -0.113  -0.148  -0.002
    1UNL     C9   12  -0.163  -0.234  -0.108
    1UNL    C10   13  -0.227  -0.157  -0.228
    1UNL     O4   14  -0.154  -0.052  -0.283
    1UNL    C11   15  -0.204   0.073  -0.242
    1UNL     O5   16  -0.248   0.065  -0.108
    1UNL    C12   17  -0.339   0.174  -0.069
    1UNL    C13   18  -0.339   0.188   0.080
    1UNL     O6   19  -0.338   0.057   0.141
    1UNL    C14   20  -0.291   0.316  -0.126
    1UNL     O7   21  -0.292   0.417  -0.029
    1UNL    C15   22  -0.149   0.321  -0.193
    1UNL     O8   23  -0.137   0.416  -0.298
    1UNL    C16   24  -0.093   0.179  -0.243
    1UNL     O9   25   0.005   0.124  -0.155
    1UNL    C17   26  -0.265  -0.347  -0.053
    1UNL    O10   27  -0.212  -0.481  -0.056
    1UNL    C18   28  -0.298  -0.312   0.093
    1UNL    O11   29  -0.387  -0.405   0.145
    1UNL    C19   30  -0.171  -0.309   0.178
    1UNL    O12   31  -0.128  -0.432   0.199
    1UNL    C20   32   0.228  -0.089   0.076
    1UNL    C21   33   0.128   0.012   0.145
    1UNL    O13   34   0.182   0.142   0.147
    1UNL    C22   35   0.083   0.236   0.153
    1UNL    O14   36  -0.032   0.199   0.128
    1UNL    C23   37   0.120   0.382   0.162
    1UNL    C24   38   0.255   0.424   0.176
    1UNL    C25   39   0.287   0.558   0.192
    1UNL    C26   40   0.178   0.652   0.182
    1UNL    C27   41   0.052   0.609   0.158
    1UNL    C28   42   0.021   0.474   0.144
    1UNL    C29   43   0.340  -0.137   0.158
    1UNL    O15   44   0.398  -0.075   0.243
    1UNL    O16   45   0.370  -0.270   0.132
    1UNL     H1   46   0.227  -0.494  -0.087
    1UNL     H2   47   0.168  -0.473   0.086
    1UNL     H3   48   0.331  -0.530   0.056
    1UNL     H4   49   0.355  -0.322  -0.202
    1UNL     H5   50   0.492  -0.306  -0.087
    1UNL     H6   51   0.400  -0.112  -0.234
    1UNL     H7   52   0.517  -0.078   0.021
    1UNL     H8   53   0.260   0.063  -0.092
    1UNL     H9   54   0.049  -0.080  -0.109
    1UNL    H10   55   0.148  -0.186  -0.215
    1UNL    H11   56  -0.041  -0.144   0.177
    1UNL    H12   57  -0.074  -0.288  -0.137
    1UNL    H13   58  -0.325  -0.116  -0.184
    1UNL    H14   59  -0.250  -0.225  -0.314
    1UNL    H15   60  -0.289   0.111  -0.298
    1UNL    H16   61  -0.439   0.133  -0.088
    1UNL    H17   62  -0.434   0.230   0.124
    1UNL    H18   63  -0.254   0.245   0.124
    1UNL    H19   64  -0.257   0.006   0.119
    1UNL    H20   65  -0.363   0.345  -0.203
    1UNL    H21   66  -0.384   0.433   0.002
    1UNL    H22   67  -0.077   0.355  -0.120
    1UNL    H23   68  -0.138   0.500  -0.256
    1UNL    H24   69  -0.051   0.188  -0.337
    1UNL    H25   70  -0.011   0.140  -0.053
    1UNL    H26   71  -0.360  -0.351  -0.114
    1UNL    H27   72  -0.150  -0.491   0.016
    1UNL    H28   73  -0.348  -0.207   0.096
    1UNL    H29   74  -0.361  -0.493   0.103
    1UNL    H30   75  -0.200  -0.266   0.278
    1UNL    H31   76  -0.029  -0.432   0.225
    1UNL    H32   77   0.034   0.012   0.096
    1UNL    H33   78   0.112  -0.011   0.252
    1UNL    H34   79   0.334   0.349   0.175
    1UNL    H35   80   0.389   0.585   0.209
    1UNL    H36   81   0.206   0.759   0.204
    1UNL    H37   82  -0.028   0.681   0.132
    1UNL    H38   83  -0.082   0.437   0.118
   0.00000   0.00000   0.00000   0.00000   0.00000   0.00000   0.00000   0.00000   0.00000
Generated with MDTraj, t= 83.0
 83
    1UNL     C1    1   0.256  -0.457   0.007
    1UNL     C2    2   0.288  -0.307   0.011
    1UNL     C3    3   0.391  -0.261  -0.100
    1UNL     C4    4   0.396  -0.111  -0.099
    1UNL     O1    5   0.504  -0.060  -0.028
    1UNL     C5    6   0.251  -0.044  -0.058
    1UNL     C6    7   0.140  -0.131  -0.113
    1UNL     C7    8   0.157  -0.218   0.014
    1UNL     O2    9   0.038  -0.288   0.069
    1UNL     C8   10  -0.076  -0.213   0.103
    1UNL     O3   11  -0.130  -0.146  -0.015
    1UNL     C9   12  -0.167  -0.234  -0.116
    1UNL    C10   13  -0.221  -0.158  -0.227
    1UNL     O4   14  -0.131  -0.048  -0.266
    1UNL    C11   15  -0.200   0.073  -0.233
    1UNL     O5   16  -0.264   0.060  -0.106
    1UNL    C12   17  -0.330   0.172  -0.043
    1UNL    C13   18  -0.299   0.168   0.103
    1UNL     O6   19  -0.311   0.040   0.148
    1UNL    C14   20  -0.304   0.310  -0.122
    1UNL     O7   21  -0.328   0.424  -0.044
    1UNL    C15   22  -0.172   0.320  -0.197
    1UNL     O8   23  -0.198   0.391  -0.315
    1UNL    C16   24  -0.100   0.190  -0.238
    1UNL     O9   25   0.022   0.162  -0.167
    1UNL    C17   26  -0.261  -0.354  -0.056
    1UNL    O10   27  -0.202  -0.479  -0.066
    1UNL    C18   28  -0.307  -0.321   0.087
    1UNL    O11   29  -0.380  -0.426   0.150
    1UNL    C19   30  -0.178  -0.312   0.169
    1UNL    O12   31  -0.126  -0.441   0.180
    1UNL    C20   32   0.215  -0.086   0.081
    1UNL    C21   33   0.122   0.012   0.149
    1UNL    O13   34   0.183   0.137   0.151
    1UNL    C22   35   0.091   0.240   0.149
    1UNL    O14   36  -0.021   0.214   0.111
    1UNL    C23   37   0.132   0.382   0.157
    1UNL    C24   38   0.257   0.410   0.205
    1UNL    C25   39   0.299   0.544   0.211
    1UNL    C26   40   0.223   0.650   0.164
    1UNL    C27   41   0.093   0.618   0.122
    1UNL    C28   42   0.051   0.482   0.118
    1UNL    C29   43   0.335  -0.138   0.161
    1UNL    O15   44   0.395  -0.072   0.244
    1UNL    O16   45   0.360  -0.267   0.130
    1UNL     H1   46   0.176  -0.497  -0.068
    1UNL     H2   47   0.214  -0.490   0.110
    1UNL     H3   48   0.348  -0.512   0.002
    1UNL     H4   49   0.354  -0.293  -0.195
    1UNL     H5   50   0.488  -0.298  -0.067
    1UNL     H6   51   0.397  -0.076  -0.202
    1UNL     H7   52   0.482  -0.049   0.068
    1UNL     H8   53   0.238   0.071  -0.071
    1UNL     H9   54   0.045  -0.078  -0.125
    1UNL    H10   55   0.165  -0.184  -0.203
    1UNL    H11   56  -0.048  -0.137   0.166
    1UNL    H12   57  -0.073  -0.283  -0.141
    1UNL    H13   58  -0.315  -0.101  -0.192
    1UNL    H14   59  -0.239  -0.230  -0.313
    1UNL    H15   60  -0.287   0.084  -0.299
    1UNL    H16   61  -0.437   0.156  -0.042
    1UNL    H17   62  -0.369   0.235   0.162
    1UNL    H18   63  -0.192   0.199   0.118
    1UNL    H19   64  -0.267  -0.028   0.090
    1UNL    H20   65  -0.378   0.337  -0.200
    1UNL    H21   66  -0.412   0.416   0.009
    1UNL    H22   67  -0.098   0.377  -0.142
    1UNL    H23   68  -0.224   0.483  -0.292
    1UNL    H24   69  -0.068   0.196  -0.336
    1UNL    H25   70  -0.002   0.166  -0.076
    1UNL    H26   71  -0.350  -0.365  -0.123
    1UNL    H27   72  -0.146  -0.496   0.017
    1UNL    H28   73  -0.369  -0.225   0.086
    1UNL    H29   74  -0.343  -0.517   0.132
    1UNL    H30   75  -0.203  -0.283   0.271
    1UNL    H31   76  -0.032  -0.444   0.195
    1UNL    H32   77   0.025   0.024   0.106
    1UNL    H33   78   0.113  -0.020   0.256
    1UNL    H34   79   0.319   0.330   0.240
    1UNL    H35   80   0.402   0.565   0.244
    1UNL    H36   81   0.267   0.740   0.166
    1UNL    H37   82   0.027   0.690   0.090
    1UNL    H38   83  -0.040   0.463   0.070
   0.00000   0.00000   0.00000   0.00000   0.00000   0.00000   0.00000   0.00000   0.00000
Generated with MDTraj, t= 84.0
 83
    1UNL     C1    1   0.257  -0.434  -0.006
    1UNL     C2    2   0.286  -0.295   0.012
    1UNL     C3    3   0.385  -0.249  -0.098
    1UNL     C4    4   0.384  -0.095  -0.101
    1UNL     O1    5   0.496  -0.032  -0.036
    1UNL     C5    6   0.243  -0.031  -0.047
    1UNL     C6    7   0.127  -0.109  -0.097
    1UNL     C7    8   0.144  -0.208   0.020
    1UNL     O2    9   0.034  -0.285   0.083
    1UNL     C8   10  -0.084  -0.215   0.109
    1UNL     O3   11  -0.136  -0.146  -0.007
    1UNL     C9   12  -0.154  -0.238  -0.112
    1UNL    C10   13  -0.218  -0.172  -0.231
    1UNL     O4   14  -0.142  -0.056  -0.275
    1UNL    C11   15  -0.210   0.060  -0.233
    1UNL     O5   16  -0.244   0.059  -0.095
    1UNL    C12   17  -0.344   0.158  -0.046
    1UNL    C13   18  -0.320   0.173   0.101
    1UNL     O6   19  -0.277   0.058   0.165
    1UNL    C14   20  -0.335   0.286  -0.139
    1UNL     O7   21  -0.352   0.398  -0.049
    1UNL    C15   22  -0.193   0.310  -0.193
    1UNL     O8   23  -0.209   0.404  -0.300
    1UNL    C16   24  -0.121   0.183  -0.255
    1UNL     O9   25   0.002   0.174  -0.191
    1UNL    C17   26  -0.258  -0.358  -0.070
    1UNL    O10   27  -0.205  -0.483  -0.102
    1UNL    C18   28  -0.303  -0.342   0.081
    1UNL    O11   29  -0.374  -0.453   0.125
    1UNL    C19   30  -0.181  -0.320   0.172
    1UNL    O12   31  -0.124  -0.450   0.194
    1UNL    C20   32   0.206  -0.081   0.096
    1UNL    C21   33   0.123   0.016   0.175
    1UNL    O13   34   0.184   0.145   0.183
    1UNL    C22   35   0.103   0.245   0.135
    1UNL    O14   36  -0.011   0.229   0.099
    1UNL    C23   37   0.167   0.382   0.136
    1UNL    C24   38   0.275   0.407   0.208
    1UNL    C25   39   0.326   0.534   0.223
    1UNL    C26   40   0.266   0.644   0.175
    1UNL    C27   41   0.147   0.623   0.104
    1UNL    C28   42   0.100   0.493   0.080
    1UNL    C29   43   0.322  -0.146   0.179
    1UNL    O15   44   0.375  -0.086   0.272
    1UNL    O16   45   0.352  -0.271   0.137
    1UNL     H1   46   0.200  -0.437  -0.105
    1UNL     H2   47   0.175  -0.472   0.067
    1UNL     H3   48   0.349  -0.497   0.005
    1UNL     H4   49   0.360  -0.302  -0.185
    1UNL     H5   50   0.488  -0.265  -0.063
    1UNL     H6   51   0.391  -0.060  -0.205
    1UNL     H7   52   0.509  -0.068   0.054
    1UNL     H8   53   0.234   0.084  -0.048
    1UNL     H9   54   0.035  -0.057  -0.096
    1UNL    H10   55   0.140  -0.177  -0.184
    1UNL    H11   56  -0.061  -0.136   0.176
    1UNL    H12   57  -0.054  -0.275  -0.134
    1UNL    H13   58  -0.323  -0.137  -0.198
    1UNL    H14   59  -0.217  -0.242  -0.318
    1UNL    H15   60  -0.306   0.062  -0.288
    1UNL    H16   61  -0.437   0.106  -0.067
    1UNL    H17   62  -0.413   0.213   0.153
    1UNL    H18   63  -0.233   0.246   0.108
    1UNL    H19   64  -0.248   0.002   0.089
    1UNL    H20   65  -0.405   0.289  -0.225
    1UNL    H21   66  -0.435   0.367  -0.005
    1UNL    H22   67  -0.128   0.353  -0.117
    1UNL    H23   68  -0.251   0.489  -0.260
    1UNL    H24   69  -0.104   0.190  -0.356
    1UNL    H25   70  -0.009   0.194  -0.089
    1UNL    H26   71  -0.346  -0.346  -0.133
    1UNL    H27   72  -0.117  -0.491  -0.060
    1UNL    H28   73  -0.368  -0.249   0.088
    1UNL    H29   74  -0.322  -0.533   0.120
    1UNL    H30   75  -0.207  -0.288   0.271
    1UNL    H31   76  -0.023  -0.454   0.211
    1UNL    H32   77   0.024   0.028   0.130
    1UNL    H33   78   0.102  -0.017   0.283
    1UNL    H34   79   0.310   0.322   0.268
    1UNL    H35   80   0.410   0.535   0.287
    1UNL    H36   81   0.306   0.751   0.165
    1UNL    H37   82   0.091   0.715   0.062
    1UNL    H38   83  -0.007   0.481   0.048
   0.00000   0.00000   0.00000   0.00000   0.00000   0.00000   0.00000   0.00000   0.00000
Generated with MDTraj, t= 85.0
 83
    1UNL     C1    1   0.251  -0.432  -0.009
    1UNL     C2    2   0.277  -0.278   0.005
    1UNL     C3    3   0.366  -0.215  -0.110
    1UNL     C4    4   0.362  -0.062  -0.093
    1UNL     O1    5   0.478  -0.028  -0.009
    1UNL     C5    6   0.225  -0.005  -0.036
    1UNL     C6    7   0.105  -0.096  -0.092
    1UNL     C7    8   0.138  -0.201   0.024
    1UNL     O2    9   0.040  -0.287   0.088
    1UNL     C8   10  -0.085  -0.227   0.118
    1UNL     O3   11  -0.149  -0.169  -0.000
    1UNL     C9   12  -0.159  -0.259  -0.115
    1UNL    C10   13  -0.219  -0.180  -0.243
    1UNL     O4   14  -0.151  -0.055  -0.278
    1UNL    C11   15  -0.221   0.058  -0.233
    1UNL     O5   16  -0.259   0.044  -0.096
    1UNL    C12   17  -0.335   0.156  -0.041
    1UNL    C13   18  -0.275   0.181   0.097
    1UNL     O6   19  -0.295   0.060   0.165
    1UNL    C14   20  -0.347   0.274  -0.143
    1UNL     O7   21  -0.415   0.397  -0.094
    1UNL    C15   22  -0.203   0.311  -0.184
    1UNL     O8   23  -0.191   0.435  -0.258
    1UNL    C16   24  -0.137   0.188  -0.260
    1UNL     O9   25  -0.001   0.181  -0.216
    1UNL    C17   26  -0.248  -0.384  -0.076
    1UNL    O10   27  -0.168  -0.502  -0.079
    1UNL    C18   28  -0.297  -0.362   0.072
    1UNL    O11   29  -0.383  -0.464   0.111
    1UNL    C19   30  -0.185  -0.337   0.178
    1UNL    O12   31  -0.118  -0.463   0.189
    1UNL    C20   32   0.194  -0.068   0.105
    1UNL    C21   33   0.100   0.020   0.191
    1UNL    O13   34   0.165   0.144   0.215
    1UNL    C22   35   0.120   0.245   0.131
    1UNL    O14   36   0.036   0.231   0.047
    1UNL    C23   37   0.183   0.378   0.145
    1UNL    C24   38   0.289   0.398   0.232
    1UNL    C25   39   0.363   0.516   0.230
    1UNL    C26   40   0.315   0.619   0.161
    1UNL    C27   41   0.191   0.613   0.086
    1UNL    C28   42   0.127   0.495   0.078
    1UNL    C29   43   0.315  -0.127   0.183
    1UNL    O15   44   0.374  -0.070   0.274
    1UNL    O16   45   0.349  -0.248   0.125
    1UNL     H1   46   0.196  -0.453  -0.106
    1UNL     H2   47   0.191  -0.486   0.069
    1UNL     H3   48   0.361  -0.474   0.001
    1UNL     H4   49   0.340  -0.242  -0.208
    1UNL     H5   50   0.465  -0.257  -0.088
    1UNL     H6   51   0.391  -0.025  -0.195
    1UNL     H7   52   0.462  -0.031   0.087
    1UNL     H8   53   0.209   0.107  -0.049
    1UNL     H9   54   0.015  -0.042  -0.089
    1UNL    H10   55   0.124  -0.126  -0.199
    1UNL    H11   56  -0.072  -0.147   0.191
    1UNL    H12   57  -0.055  -0.293  -0.133
    1UNL    H13   58  -0.325  -0.150  -0.217
    1UNL    H14   59  -0.220  -0.250  -0.326
    1UNL    H15   60  -0.314   0.065  -0.294
    1UNL    H16   61  -0.439   0.122  -0.016
    1UNL    H17   62  -0.334   0.263   0.148
    1UNL    H18   63  -0.165   0.206   0.087
    1UNL    H19   64  -0.247  -0.013   0.114
    1UNL    H20   65  -0.405   0.247  -0.233
    1UNL    H21   66  -0.490   0.384  -0.034
    1UNL    H22   67  -0.155   0.321  -0.087
    1UNL    H23   68  -0.274   0.492  -0.233
    1UNL    H24   69  -0.139   0.215  -0.359
    1UNL    H25   70   0.008   0.195  -0.123
    1UNL    H26   71  -0.331  -0.410  -0.139
    1UNL    H27   72  -0.099  -0.498  -0.013
    1UNL    H28   73  -0.357  -0.268   0.075
    1UNL    H29   74  -0.340  -0.552   0.094
    1UNL    H30   75  -0.223  -0.306   0.273
    1UNL    H31   76  -0.027  -0.456   0.219
    1UNL    H32   77   0.002   0.050   0.150
    1UNL    H33   78   0.073  -0.021   0.295
    1UNL    H34   79   0.318   0.318   0.297
    1UNL    H35   80   0.455   0.530   0.293
    1UNL    H36   81   0.379   0.704   0.146
    1UNL    H37   82   0.165   0.699   0.035
    1UNL    H38   83   0.032   0.493   0.037
   0.00000   0.00000   0.00000   0.00000   0.00000   0.00000   0.00000   0.00000   0.00000
Generated with MDTraj, t= 86.0
 83
    1UNL     C1    1   0.246  -0.405  -0.008
    1UNL     C2    2   0.272  -0.253   0.012
    1UNL     C3    3   0.358  -0.183  -0.096
    1UNL     C4    4   0.342  -0.033  -0.098
    1UNL     O1    5   0.446   0.036  -0.028
    1UNL     C5    6   0.208   0.001  -0.032
    1UNL     C6    7   0.087  -0.082  -0.078
    1UNL     C7    8   0.130  -0.183   0.039
    1UNL     O2    9   0.033  -0.275   0.100
    1UNL     C8   10  -0.096  -0.221   0.114
    1UNL     O3   11  -0.163  -0.157   0.004
    1UNL     C9   12  -0.167  -0.246  -0.108
    1UNL    C10   13  -0.228  -0.186  -0.241
    1UNL     O4   14  -0.155  -0.072  -0.274
    1UNL    C11   15  -0.225   0.050  -0.234
    1UNL     O5   16  -0.269   0.048  -0.099
    1UNL    C12   17  -0.366   0.146  -0.056
    1UNL    C13   18  -0.312   0.175   0.087
    1UNL     O6   19  -0.256   0.064   0.156
    1UNL    C14   20  -0.349   0.277  -0.142
    1UNL     O7   21  -0.396   0.397  -0.082
    1UNL    C15   22  -0.206   0.300  -0.184
    1UNL     O8   23  -0.178   0.419  -0.256
    1UNL    C16   24  -0.149   0.179  -0.261
    1UNL     O9   25  -0.006   0.166  -0.237
    1UNL    C17   26  -0.238  -0.380  -0.085
    1UNL    O10   27  -0.141  -0.487  -0.073
    1UNL    C18   28  -0.299  -0.378   0.059
    1UNL    O11   29  -0.348  -0.501   0.099
    1UNL    C19   30  -0.191  -0.339   0.160
    1UNL    O12   31  -0.117  -0.453   0.196
    1UNL    C20   32   0.183  -0.057   0.117
    1UNL    C21   33   0.083   0.022   0.205
    1UNL    O13   34   0.143   0.145   0.233
    1UNL    C22   35   0.113   0.235   0.133
    1UNL    O14   36   0.040   0.217   0.038
    1UNL    C23   37   0.203   0.353   0.141
    1UNL    C24   38   0.315   0.358   0.234
    1UNL    C25   39   0.381   0.480   0.248
    1UNL    C26   40   0.341   0.584   0.166
    1UNL    C27   41   0.239   0.578   0.077
    1UNL    C28   42   0.172   0.463   0.060
    1UNL    C29   43   0.313  -0.110   0.183
    1UNL    O15   44   0.378  -0.049   0.262
    1UNL    O16   45   0.347  -0.240   0.141
    1UNL     H1   46   0.161  -0.427  -0.080
    1UNL     H2   47   0.212  -0.445   0.091
    1UNL     H3   48   0.351  -0.456  -0.020
    1UNL     H4   49   0.324  -0.227  -0.186
    1UNL     H5   50   0.462  -0.214  -0.089
    1UNL     H6   51   0.353  -0.005  -0.206
    1UNL     H7   52   0.443   0.020   0.070
    1UNL     H8   53   0.194   0.116  -0.035
    1UNL     H9   54  -0.014  -0.043  -0.073
    1UNL    H10   55   0.103  -0.113  -0.186
    1UNL    H11   56  -0.103  -0.146   0.198
    1UNL    H12   57  -0.059  -0.248  -0.137
    1UNL    H13   58  -0.333  -0.160  -0.226
    1UNL    H14   59  -0.217  -0.257  -0.319
    1UNL    H15   60  -0.313   0.058  -0.302
    1UNL    H16   61  -0.469   0.101  -0.046
    1UNL    H17   62  -0.388   0.222   0.152
    1UNL    H18   63  -0.230   0.248   0.076
    1UNL    H19   64  -0.209   0.006   0.090
    1UNL    H20   65  -0.410   0.254  -0.230
    1UNL    H21   66  -0.477   0.389  -0.025
    1UNL    H22   67  -0.150   0.290  -0.089
    1UNL    H23   68  -0.243   0.485  -0.244
    1UNL    H24   69  -0.151   0.202  -0.361
    1UNL    H25   70   0.014   0.180  -0.135
    1UNL    H26   71  -0.316  -0.397  -0.154
    1UNL    H27   72  -0.091  -0.468   0.013
    1UNL    H28   73  -0.381  -0.306   0.057
    1UNL    H29   74  -0.295  -0.576   0.060
    1UNL    H30   75  -0.244  -0.302   0.248
    1UNL    H31   76  -0.035  -0.425   0.248
    1UNL    H32   77  -0.013   0.047   0.156
    1UNL    H33   78   0.055  -0.023   0.306
    1UNL    H34   79   0.336   0.275   0.299
    1UNL    H35   80   0.470   0.482   0.301
    1UNL    H36   81   0.397   0.671   0.183
    1UNL    H37   82   0.223   0.667   0.014
    1UNL    H38   83   0.098   0.453  -0.024
   0.00000   0.00000   0.00000   0.00000   0.00000   0.00000   0.00000   0.00000   0.00000
Generated with MDTraj, t= 87.0
 83
    1UNL     C1    1   0.259  -0.402  -0.000
    1UNL     C2    2   0.266  -0.249   0.019
    1UNL     C3    3   0.341  -0.178  -0.109
    1UNL     C4    4   0.332  -0.022  -0.101
    1UNL     O1    5   0.448   0.031  -0.033
    1UNL     C5    6   0.193   0.017  -0.035
    1UNL     C6    7   0.079  -0.080  -0.081
    1UNL     C7    8   0.123  -0.175   0.033
    1UNL     O2    9   0.034  -0.273   0.092
    1UNL     C8   10  -0.096  -0.231   0.104
    1UNL     O3   11  -0.158  -0.176  -0.007
    1UNL     C9   12  -0.166  -0.259  -0.120
    1UNL    C10   13  -0.243  -0.179  -0.233
    1UNL     O4   14  -0.166  -0.073  -0.279
    1UNL    C11   15  -0.229   0.050  -0.235
    1UNL     O5   16  -0.259   0.044  -0.097
    1UNL    C12   17  -0.346   0.156  -0.053
    1UNL    C13   18  -0.305   0.184   0.093
    1UNL     O6   19  -0.313   0.056   0.157
    1UNL    C14   20  -0.338   0.291  -0.139
    1UNL     O7   21  -0.364   0.409  -0.058
    1UNL    C15   22  -0.199   0.302  -0.199
    1UNL     O8   23  -0.196   0.412  -0.285
    1UNL    C16   24  -0.141   0.171  -0.267
    1UNL     O9   25  -0.007   0.156  -0.221
    1UNL    C17   26  -0.219  -0.397  -0.082
    1UNL    O10   27  -0.104  -0.495  -0.077
    1UNL    C18   28  -0.283  -0.397   0.057
    1UNL    O11   29  -0.331  -0.520   0.099
    1UNL    C19   30  -0.190  -0.341   0.166
    1UNL    O12   31  -0.117  -0.457   0.205
    1UNL    C20   32   0.170  -0.045   0.111
    1UNL    C21   33   0.067   0.027   0.197
    1UNL    O13   34   0.115   0.154   0.246
    1UNL    C22   35   0.087   0.251   0.155
    1UNL    O14   36   0.011   0.244   0.060
    1UNL    C23   37   0.191   0.362   0.163
    1UNL    C24   38   0.303   0.347   0.249
    1UNL    C25   39   0.399   0.442   0.245
    1UNL    C26   40   0.390   0.547   0.150
    1UNL    C27   41   0.295   0.555   0.064
    1UNL    C28   42   0.193   0.459   0.065
    1UNL    C29   43   0.306  -0.087   0.181
    1UNL    O15   44   0.363  -0.009   0.252
    1UNL    O16   45   0.337  -0.213   0.138
    1UNL     H1   46   0.207  -0.420  -0.101
    1UNL     H2   47   0.189  -0.444   0.077
    1UNL     H3   48   0.361  -0.446   0.013
    1UNL     H4   49   0.316  -0.224  -0.204
    1UNL     H5   50   0.447  -0.195  -0.107
    1UNL     H6   51   0.334   0.029  -0.201
    1UNL     H7   52   0.438   0.009   0.061
    1UNL     H8   53   0.165   0.128  -0.027
    1UNL     H9   54  -0.030  -0.059  -0.079
    1UNL    H10   55   0.104  -0.128  -0.177
    1UNL    H11   56  -0.103  -0.141   0.176
    1UNL    H12   57  -0.060  -0.277  -0.154
    1UNL    H13   58  -0.336  -0.141  -0.194
    1UNL    H14   59  -0.255  -0.247  -0.312
    1UNL    H15   60  -0.327   0.061  -0.287
    1UNL    H16   61  -0.450   0.109  -0.059
    1UNL    H17   62  -0.377   0.246   0.144
    1UNL    H18   63  -0.208   0.229   0.105
    1UNL    H19   64  -0.259  -0.008   0.104
    1UNL    H20   65  -0.407   0.283  -0.225
    1UNL    H21   66  -0.449   0.399  -0.006
    1UNL    H22   67  -0.135   0.336  -0.112
    1UNL    H23   68  -0.262   0.484  -0.256
    1UNL    H24   69  -0.143   0.192  -0.367
    1UNL    H25   70  -0.002   0.190  -0.133
    1UNL    H26   71  -0.284  -0.450  -0.145
    1UNL    H27   72  -0.064  -0.499   0.010
    1UNL    H28   73  -0.371  -0.336   0.047
    1UNL    H29   74  -0.263  -0.573   0.138
    1UNL    H30   75  -0.249  -0.295   0.248
    1UNL    H31   76  -0.050  -0.437   0.268
    1UNL    H32   77  -0.026   0.048   0.140
    1UNL    H33   78   0.043  -0.032   0.289
    1UNL    H34   79   0.313   0.257   0.307
    1UNL    H35   80   0.485   0.448   0.318
    1UNL    H36   81   0.468   0.627   0.151
    1UNL    H37   82   0.295   0.633  -0.006
    1UNL    H38   83   0.124   0.462  -0.012
   0.00000   0.00000   0.00000   0.00000   0.00000   0.00000   0.00000   0.00000   0.00000
Generated with MDTraj, t= 88.0
 83
    1UNL     C1    1   0.287  -0.393   0.006
    1UNL     C2    2   0.271  -0.238   0.017
    1UNL     C3    3   0.344  -0.175  -0.107
    1UNL     C4    4   0.329  -0.021  -0.101
    1UNL     O1    5   0.430   0.055  -0.026
    1UNL     C5    6   0.191   0.016  -0.045
    1UNL     C6    7   0.082  -0.100  -0.096
    1UNL     C7    8   0.122  -0.174   0.030
    1UNL     O2    9   0.028  -0.264   0.094
    1UNL     C8   10  -0.109  -0.231   0.120
    1UNL     O3   11  -0.171  -0.167   0.010
    1UNL     C9   12  -0.163  -0.248  -0.112
    1UNL    C10   13  -0.242  -0.178  -0.224
    1UNL     O4   14  -0.177  -0.069  -0.281
    1UNL    C11   15  -0.232   0.059  -0.234
    1UNL     O5   16  -0.262   0.051  -0.095
    1UNL    C12   17  -0.340   0.162  -0.046
    1UNL    C13   18  -0.316   0.185   0.103
    1UNL     O6   19  -0.315   0.059   0.167
    1UNL    C14   20  -0.333   0.286  -0.135
    1UNL     O7   21  -0.362   0.407  -0.069
    1UNL    C15   22  -0.191   0.303  -0.196
    1UNL     O8   23  -0.207   0.389  -0.305
    1UNL    C16   24  -0.129   0.170  -0.253
    1UNL     O9   25  -0.012   0.142  -0.184
    1UNL    C17   26  -0.211  -0.398  -0.082
    1UNL    O10   27  -0.093  -0.476  -0.088
    1UNL    C18   28  -0.281  -0.405   0.054
    1UNL    O11   29  -0.324  -0.530   0.078
    1UNL    C19   30  -0.191  -0.358   0.167
    1UNL    O12   31  -0.098  -0.466   0.200
    1UNL    C20   32   0.161  -0.043   0.103
    1UNL    C21   33   0.056   0.028   0.190
    1UNL    O13   34   0.109   0.153   0.236
    1UNL    C22   35   0.089   0.259   0.148
    1UNL    O14   36   0.001   0.260   0.066
    1UNL    C23   37   0.189   0.364   0.153
    1UNL    C24   38   0.295   0.333   0.235
    1UNL    C25   39   0.408   0.405   0.236
    1UNL    C26   40   0.417   0.512   0.151
    1UNL    C27   41   0.323   0.535   0.059
    1UNL    C28   42   0.204   0.465   0.058
    1UNL    C29   43   0.291  -0.082   0.184
    1UNL    O15   44   0.330  -0.002   0.266
    1UNL    O16   45   0.343  -0.194   0.135
    1UNL     H1   46   0.228  -0.425  -0.087
    1UNL     H2   47   0.239  -0.449   0.096
    1UNL     H3   48   0.391  -0.423  -0.010
    1UNL     H4   49   0.299  -0.210  -0.200
    1UNL     H5   50   0.444  -0.205  -0.112
    1UNL     H6   51   0.330   0.025  -0.201
    1UNL     H7   52   0.421   0.032   0.069
    1UNL     H8   53   0.153   0.118  -0.083
    1UNL     H9   54  -0.020  -0.048  -0.103
    1UNL    H10   55   0.107  -0.145  -0.190
    1UNL    H11   56  -0.113  -0.157   0.212
    1UNL    H12   57  -0.060  -0.251  -0.156
    1UNL    H13   58  -0.334  -0.141  -0.179
    1UNL    H14   59  -0.254  -0.244  -0.304
    1UNL    H15   60  -0.327   0.064  -0.287
    1UNL    H16   61  -0.447   0.131  -0.058
    1UNL    H17   62  -0.383   0.257   0.148
    1UNL    H18   63  -0.221   0.229   0.124
    1UNL    H19   64  -0.282  -0.007   0.104
    1UNL    H20   65  -0.397   0.283  -0.225
    1UNL    H21   66  -0.446   0.404  -0.018
    1UNL    H22   67  -0.127   0.361  -0.121
    1UNL    H23   68  -0.266   0.468  -0.276
    1UNL    H24   69  -0.107   0.168  -0.353
    1UNL    H25   70  -0.021   0.164  -0.085
    1UNL    H26   71  -0.288  -0.420  -0.151
    1UNL    H27   72  -0.065  -0.487   0.008
    1UNL    H28   73  -0.364  -0.340   0.043
    1UNL    H29   74  -0.244  -0.586   0.103
    1UNL    H30   75  -0.257  -0.338   0.257
    1UNL    H31   76  -0.021  -0.433   0.257
    1UNL    H32   77  -0.034   0.054   0.127
    1UNL    H33   78   0.033  -0.029   0.281
    1UNL    H34   79   0.290   0.245   0.299
    1UNL    H35   80   0.488   0.405   0.304
    1UNL    H36   81   0.505   0.574   0.155
    1UNL    H37   82   0.327   0.614  -0.022
    1UNL    H38   83   0.125   0.503  -0.015
   0.00000   0.00000   0.00000   0.00000   0.00000   0.00000   0.00000   0.00000   0.00000
Generated with MDTraj, t= 89.0
 83
    1UNL     C1    1   0.275  -0.391   0.008
    1UNL     C2    2   0.271  -0.237   0.025
    1UNL     C3    3   0.362  -0.165  -0.068
    1UNL     C4    4   0.333  -0.007  -0.074
    1UNL     O1    5   0.428   0.075  -0.006
    1UNL     C5    6   0.192   0.014  -0.028
    1UNL     C6    7   0.098  -0.090  -0.091
    1UNL     C7    8   0.125  -0.175   0.030
    1UNL     O2    9   0.033  -0.281   0.066
    1UNL     C8   10  -0.099  -0.244   0.102
    1UNL     O3   11  -0.167  -0.172  -0.001
    1UNL     C9   12  -0.171  -0.251  -0.121
    1UNL    C10   13  -0.253  -0.182  -0.228
    1UNL     O4   14  -0.181  -0.067  -0.281
    1UNL    C11   15  -0.245   0.060  -0.238
    1UNL     O5   16  -0.295   0.058  -0.103
    1UNL    C12   17  -0.357   0.171  -0.044
    1UNL    C13   18  -0.288   0.192   0.090
    1UNL     O6   19  -0.273   0.074   0.164
    1UNL    C14   20  -0.350   0.295  -0.136
    1UNL     O7   21  -0.393   0.417  -0.079
    1UNL    C15   22  -0.206   0.311  -0.200
    1UNL     O8   23  -0.216   0.408  -0.301
    1UNL    C16   24  -0.152   0.179  -0.266
    1UNL     O9   25  -0.016   0.157  -0.221
    1UNL    C17   26  -0.216  -0.400  -0.083
    1UNL    O10   27  -0.106  -0.499  -0.080
    1UNL    C18   28  -0.284  -0.410   0.057
    1UNL    O11   29  -0.312  -0.546   0.086
    1UNL    C19   30  -0.178  -0.366   0.165
    1UNL    O12   31  -0.085  -0.475   0.197
    1UNL    C20   32   0.159  -0.042   0.117
    1UNL    C21   33   0.050   0.033   0.201
    1UNL    O13   34   0.085   0.161   0.251
    1UNL    C22   35   0.091   0.255   0.147
    1UNL    O14   36   0.005   0.271   0.064
    1UNL    C23   37   0.209   0.339   0.137
    1UNL    C24   38   0.322   0.301   0.208
    1UNL    C25   39   0.425   0.391   0.218
    1UNL    C26   40   0.425   0.506   0.148
    1UNL    C27   41   0.318   0.536   0.067
    1UNL    C28   42   0.210   0.456   0.061
    1UNL    C29   43   0.287  -0.075   0.197
    1UNL    O15   44   0.346   0.005   0.267
    1UNL    O16   45   0.332  -0.205   0.161
    1UNL     H1   46   0.218  -0.434  -0.081
    1UNL     H2   47   0.222  -0.427   0.106
    1UNL     H3   48   0.372  -0.438  -0.005
    1UNL     H4   49   0.336  -0.205  -0.167
    1UNL     H5   50   0.461  -0.195  -0.049
    1UNL     H6   51   0.343   0.029  -0.176
    1UNL     H7   52   0.422   0.058   0.090
    1UNL     H8   53   0.162   0.123  -0.046
    1UNL     H9   54  -0.016  -0.069  -0.089
    1UNL    H10   55   0.130  -0.130  -0.185
    1UNL    H11   56  -0.083  -0.165   0.186
    1UNL    H12   57  -0.066  -0.268  -0.155
    1UNL    H13   58  -0.352  -0.151  -0.189
    1UNL    H14   59  -0.260  -0.258  -0.302
    1UNL    H15   60  -0.335   0.078  -0.295
    1UNL    H16   61  -0.462   0.145  -0.025
    1UNL    H17   62  -0.338   0.258   0.160
    1UNL    H18   63  -0.191   0.235   0.075
    1UNL    H19   64  -0.270  -0.000   0.100
    1UNL    H20   65  -0.420   0.276  -0.220
    1UNL    H21   66  -0.468   0.387  -0.026
    1UNL    H22   67  -0.131   0.359  -0.125
    1UNL    H23   68  -0.247   0.495  -0.262
    1UNL    H24   69  -0.133   0.196  -0.365
    1UNL    H25   70  -0.019   0.181  -0.129
    1UNL    H26   71  -0.283  -0.448  -0.152
    1UNL    H27   72  -0.028  -0.473  -0.027
    1UNL    H28   73  -0.378  -0.366   0.071
    1UNL    H29   74  -0.227  -0.591   0.085
    1UNL    H30   75  -0.230  -0.338   0.262
    1UNL    H31   76  -0.010  -0.444   0.250
    1UNL    H32   77  -0.044   0.038   0.138
    1UNL    H33   78   0.046  -0.021   0.294
    1UNL    H34   79   0.319   0.214   0.270
    1UNL    H35   80   0.508   0.362   0.279
    1UNL    H36   81   0.503   0.579   0.141
    1UNL    H37   82   0.328   0.621   0.010
    1UNL    H38   83   0.125   0.475   0.004
   0.00000   0.00000   0.00000   0.00000   0.00000   0.00000   0.00000   0.00000   0.00000
Generated with MDTraj, t= 90.0
 83
    1UNL     C1    1   0.283  -0.387   0.015
    1UNL     C2    2   0.286  -0.238   0.040
    1UNL     C3    3   0.378  -0.165  -0.076
    1UNL     C4    4   0.348  -0.006  -0.063
    1UNL     O1    5   0.440   0.057   0.029
    1UNL     C5    6   0.201   0.011  -0.026
    1UNL     C6    7   0.109  -0.094  -0.085
    1UNL     C7    8   0.140  -0.178   0.042
    1UNL     O2    9   0.049  -0.274   0.087
    1UNL     C8   10  -0.088  -0.231   0.110
    1UNL     O3   11  -0.160  -0.165  -0.000
    1UNL     C9   12  -0.173  -0.242  -0.120
    1UNL    C10   13  -0.264  -0.175  -0.224
    1UNL     O4   14  -0.196  -0.058  -0.284
    1UNL    C11   15  -0.263   0.058  -0.239
    1UNL     O5   16  -0.313   0.041  -0.109
    1UNL    C12   17  -0.371   0.160  -0.041
    1UNL    C13   18  -0.288   0.194   0.087
    1UNL     O6   19  -0.264   0.075   0.156
    1UNL    C14   20  -0.376   0.284  -0.140
    1UNL     O7   21  -0.424   0.405  -0.078
    1UNL    C15   22  -0.231   0.307  -0.204
    1UNL     O8   23  -0.229   0.409  -0.302
    1UNL    C16   24  -0.171   0.177  -0.268
    1UNL     O9   25  -0.029   0.146  -0.239
    1UNL    C17   26  -0.219  -0.395  -0.085
    1UNL    O10   27  -0.107  -0.479  -0.092
    1UNL    C18   28  -0.287  -0.395   0.057
    1UNL    O11   29  -0.324  -0.533   0.075
    1UNL    C19   30  -0.177  -0.357   0.161
    1UNL    O12   31  -0.091  -0.466   0.178
    1UNL    C20   32   0.169  -0.042   0.118
    1UNL    C21   33   0.048   0.035   0.198
    1UNL    O13   34   0.090   0.165   0.243
    1UNL    C22   35   0.107   0.249   0.136
    1UNL    O14   36   0.043   0.240   0.032
    1UNL    C23   37   0.216   0.347   0.154
    1UNL    C24   38   0.335   0.302   0.212
    1UNL    C25   39   0.447   0.387   0.188
    1UNL    C26   40   0.441   0.503   0.122
    1UNL    C27   41   0.313   0.546   0.081
    1UNL    C28   42   0.206   0.471   0.099
    1UNL    C29   43   0.282  -0.085   0.205
    1UNL    O15   44   0.316  -0.019   0.302
    1UNL    O16   45   0.344  -0.199   0.160
    1UNL     H1   46   0.277  -0.424  -0.092
    1UNL     H2   47   0.205  -0.437   0.080
    1UNL     H3   48   0.385  -0.429   0.038
    1UNL     H4   49   0.374  -0.205  -0.177
    1UNL     H5   50   0.478  -0.176  -0.046
    1UNL     H6   51   0.371   0.039  -0.160
    1UNL     H7   52   0.422   0.029   0.121
    1UNL     H8   53   0.163   0.116  -0.041
    1UNL     H9   54  -0.004  -0.073  -0.078
    1UNL    H10   55   0.139  -0.138  -0.180
    1UNL    H11   56  -0.084  -0.155   0.191
    1UNL    H12   57  -0.075  -0.250  -0.171
    1UNL    H13   58  -0.361  -0.146  -0.173
    1UNL    H14   59  -0.278  -0.246  -0.304
    1UNL    H15   60  -0.349   0.077  -0.301
    1UNL    H16   61  -0.470   0.128  -0.013
    1UNL    H17   62  -0.348   0.264   0.146
    1UNL    H18   63  -0.191   0.237   0.068
    1UNL    H19   64  -0.230   0.003   0.097
    1UNL    H20   65  -0.449   0.276  -0.222
    1UNL    H21   66  -0.506   0.394  -0.025
    1UNL    H22   67  -0.169   0.346  -0.112
    1UNL    H23   68  -0.244   0.490  -0.257
    1UNL    H24   69  -0.161   0.192  -0.369
    1UNL    H25   70   0.007   0.188  -0.153
    1UNL    H26   71  -0.293  -0.409  -0.165
    1UNL    H27   72  -0.043  -0.445  -0.028
    1UNL    H28   73  -0.374  -0.339   0.054
    1UNL    H29   74  -0.236  -0.580   0.081
    1UNL    H30   75  -0.223  -0.327   0.257
    1UNL    H31   76  -0.016  -0.436   0.232
    1UNL    H32   77  -0.036   0.061   0.126
    1UNL    H33   78   0.027  -0.030   0.279
    1UNL    H34   79   0.355   0.199   0.238
    1UNL    H35   80   0.542   0.344   0.224
    1UNL    H36   81   0.531   0.563   0.095
    1UNL    H37   82   0.311   0.642   0.024
    1UNL    H38   83   0.113   0.489   0.041
   0.00000   0.00000   0.00000   0.00000   0.00000   0.00000   0.00000   0.00000   0.00000
Generated with MDTraj, t= 91.0
 83
    1UNL     C1    1   0.286  -0.397   0.033
    1UNL     C2    2   0.292  -0.249   0.043
    1UNL     C3    3   0.391  -0.182  -0.057
    1UNL     C4    4   0.372  -0.024  -0.058
    1UNL     O1    5   0.469   0.026   0.031
    1UNL     C5    6   0.221   0.011  -0.016
    1UNL     C6    7   0.114  -0.092  -0.087
    1UNL     C7    8   0.141  -0.190   0.036
    1UNL     O2    9   0.037  -0.279   0.069
    1UNL     C8   10  -0.089  -0.222   0.095
    1UNL     O3   11  -0.150  -0.165  -0.017
    1UNL     C9   12  -0.164  -0.248  -0.137
    1UNL    C10   13  -0.271  -0.185  -0.241
    1UNL     O4   14  -0.211  -0.066  -0.296
    1UNL    C11   15  -0.272   0.053  -0.240
    1UNL     O5   16  -0.296   0.049  -0.101
    1UNL    C12   17  -0.367   0.161  -0.043
    1UNL    C13   18  -0.300   0.179   0.094
    1UNL     O6   19  -0.290   0.055   0.174
    1UNL    C14   20  -0.375   0.282  -0.137
    1UNL     O7   21  -0.415   0.402  -0.069
    1UNL    C15   22  -0.243   0.307  -0.208
    1UNL     O8   23  -0.265   0.408  -0.306
    1UNL    C16   24  -0.176   0.180  -0.269
    1UNL     O9   25  -0.052   0.151  -0.198
    1UNL    C17   26  -0.203  -0.396  -0.101
    1UNL    O10   27  -0.086  -0.469  -0.086
    1UNL    C18   28  -0.279  -0.385   0.031
    1UNL    O11   29  -0.342  -0.506   0.080
    1UNL    C19   30  -0.180  -0.337   0.140
    1UNL    O12   31  -0.105  -0.440   0.201
    1UNL    C20   32   0.172  -0.056   0.119
    1UNL    C21   33   0.068   0.043   0.194
    1UNL    O13   34   0.133   0.164   0.224
    1UNL    C22   35   0.103   0.257   0.121
    1UNL    O14   36  -0.002   0.260   0.053
    1UNL    C23   37   0.219   0.351   0.121
    1UNL    C24   38   0.335   0.305   0.178
    1UNL    C25   39   0.446   0.390   0.195
    1UNL    C26   40   0.436   0.516   0.148
    1UNL    C27   41   0.316   0.563   0.094
    1UNL    C28   42   0.209   0.479   0.075
    1UNL    C29   43   0.283  -0.093   0.209
    1UNL    O15   44   0.325  -0.020   0.298
    1UNL    O16   45   0.339  -0.211   0.175
    1UNL     H1   46   0.235  -0.425  -0.064
    1UNL     H2   47   0.227  -0.435   0.118
    1UNL     H3   48   0.385  -0.459   0.019
    1UNL     H4   49   0.370  -0.224  -0.152
    1UNL     H5   50   0.493  -0.204  -0.030
    1UNL     H6   51   0.389   0.011  -0.162
    1UNL     H7   52   0.439   0.003   0.121
    1UNL     H8   53   0.197   0.119  -0.019
    1UNL     H9   54   0.016  -0.038  -0.093
    1UNL    H10   55   0.149  -0.129  -0.187
    1UNL    H11   56  -0.073  -0.153   0.174
    1UNL    H12   57  -0.062  -0.266  -0.171
    1UNL    H13   58  -0.362  -0.150  -0.180
    1UNL    H14   59  -0.302  -0.251  -0.326
    1UNL    H15   60  -0.365   0.062  -0.294
    1UNL    H16   61  -0.463   0.117  -0.032
    1UNL    H17   62  -0.351   0.256   0.156
    1UNL    H18   63  -0.198   0.210   0.073
    1UNL    H19   64  -0.252  -0.015   0.116
    1UNL    H20   65  -0.452   0.270  -0.215
    1UNL    H21   66  -0.496   0.384  -0.013
    1UNL    H22   67  -0.170   0.353  -0.128
    1UNL    H23   68  -0.308   0.491  -0.276
    1UNL    H24   69  -0.154   0.184  -0.369
    1UNL    H25   70  -0.046   0.190  -0.109
    1UNL    H26   71  -0.260  -0.446  -0.185
    1UNL    H27   72  -0.039  -0.443  -0.003
    1UNL    H28   73  -0.362  -0.323   0.033
    1UNL    H29   74  -0.268  -0.558   0.115
    1UNL    H30   75  -0.247  -0.305   0.221
    1UNL    H31   76  -0.023  -0.398   0.243
    1UNL    H32   77  -0.017   0.062   0.121
    1UNL    H33   78   0.046   0.001   0.287
    1UNL    H34   79   0.337   0.205   0.221
    1UNL    H35   80   0.539   0.355   0.233
    1UNL    H36   81   0.509   0.588   0.178
    1UNL    H37   82   0.300   0.670   0.063
    1UNL    H38   83   0.112   0.507   0.035
   0.00000   0.00000   0.00000   0.00000   0.00000   0.00000   0.00000   0.00000   0.00000
Generated with MDTraj, t= 92.0
 83
    1UNL     C1    1   0.263  -0.416   0.034
    1UNL     C2    2   0.281  -0.264   0.047
    1UNL     C3    3   0.396  -0.204  -0.037
    1UNL     C4    4   0.383  -0.056  -0.058
    1UNL     O1    5   0.482   0.014   0.006
    1UNL     C5    6   0.236  -0.005  -0.030
    1UNL     C6    7   0.128  -0.097  -0.091
    1UNL     C7    8   0.140  -0.187   0.034
    1UNL     O2    9   0.033  -0.269   0.085
    1UNL     C8   10  -0.092  -0.203   0.091
    1UNL     O3   11  -0.143  -0.151  -0.032
    1UNL     C9   12  -0.156  -0.242  -0.135
    1UNL    C10   13  -0.253  -0.174  -0.242
    1UNL     O4   14  -0.191  -0.056  -0.295
    1UNL    C11   15  -0.263   0.052  -0.242
    1UNL     O5   16  -0.317   0.026  -0.113
    1UNL    C12   17  -0.366   0.138  -0.040
    1UNL    C13   18  -0.294   0.156   0.100
    1UNL     O6   19  -0.280   0.028   0.154
    1UNL    C14   20  -0.371   0.274  -0.122
    1UNL     O7   21  -0.394   0.394  -0.041
    1UNL    C15   22  -0.239   0.301  -0.196
    1UNL     O8   23  -0.261   0.398  -0.300
    1UNL    C16   24  -0.176   0.177  -0.248
    1UNL     O9   25  -0.052   0.156  -0.193
    1UNL    C17   26  -0.209  -0.381  -0.095
    1UNL    O10   27  -0.101  -0.468  -0.081
    1UNL    C18   28  -0.291  -0.374   0.036
    1UNL    O11   29  -0.325  -0.509   0.064
    1UNL    C19   30  -0.197  -0.309   0.144
    1UNL    O12   31  -0.132  -0.413   0.210
    1UNL    C20   32   0.175  -0.053   0.109
    1UNL    C21   33   0.066   0.033   0.175
    1UNL    O13   34   0.118   0.152   0.216
    1UNL    C22   35   0.105   0.256   0.125
    1UNL    O14   36   0.017   0.279   0.042
    1UNL    C23   37   0.209   0.362   0.147
    1UNL    C24   38   0.329   0.337   0.207
    1UNL    C25   39   0.437   0.414   0.196
    1UNL    C26   40   0.418   0.539   0.128
    1UNL    C27   41   0.295   0.579   0.076
    1UNL    C28   42   0.187   0.487   0.091
    1UNL    C29   43   0.287  -0.092   0.202
    1UNL    O15   44   0.353  -0.023   0.279
    1UNL    O16   45   0.323  -0.221   0.182
    1UNL     H1   46   0.225  -0.445  -0.069
    1UNL     H2   47   0.203  -0.457   0.117
    1UNL     H3   48   0.365  -0.472   0.029
    1UNL     H4   49   0.411  -0.246  -0.132
    1UNL     H5   50   0.486  -0.219   0.022
    1UNL     H6   51   0.396  -0.024  -0.165
    1UNL     H7   52   0.463  -0.004   0.101
    1UNL     H8   53   0.231   0.106  -0.045
    1UNL     H9   54   0.041  -0.035  -0.110
    1UNL    H10   55   0.170  -0.148  -0.186
    1UNL    H11   56  -0.078  -0.127   0.158
    1UNL    H12   57  -0.060  -0.254  -0.182
    1UNL    H13   58  -0.356  -0.142  -0.200
    1UNL    H14   59  -0.272  -0.238  -0.333
    1UNL    H15   60  -0.345   0.066  -0.314
    1UNL    H16   61  -0.465   0.102  -0.025
    1UNL    H17   62  -0.352   0.209   0.182
    1UNL    H18   63  -0.194   0.204   0.096
    1UNL    H19   64  -0.251  -0.035   0.079
    1UNL    H20   65  -0.454   0.270  -0.193
    1UNL    H21   66  -0.478   0.373   0.008
    1UNL    H22   67  -0.164   0.358  -0.125
    1UNL    H23   68  -0.302   0.487  -0.269
    1UNL    H24   69  -0.167   0.192  -0.348
    1UNL    H25   70  -0.043   0.194  -0.101
    1UNL    H26   71  -0.278  -0.410  -0.181
    1UNL    H27   72  -0.032  -0.410  -0.035
    1UNL    H28   73  -0.374  -0.314   0.034
    1UNL    H29   74  -0.235  -0.548   0.087
    1UNL    H30   75  -0.259  -0.260   0.217
    1UNL    H31   76  -0.077  -0.369   0.274
    1UNL    H32   77  -0.012   0.054   0.096
    1UNL    H33   78   0.037  -0.021   0.260
    1UNL    H34   79   0.347   0.239   0.247
    1UNL    H35   80   0.528   0.387   0.249
    1UNL    H36   81   0.497   0.609   0.112
    1UNL    H37   82   0.274   0.674   0.055
    1UNL    H38   83   0.092   0.514   0.054
   0.00000   0.00000   0.00000   0.00000   0.00000   0.00000   0.00000   0.00000   0.00000
Generated with MDTraj, t= 93.0
 83
    1UNL     C1    1   0.263  -0.417   0.064
    1UNL     C2    2   0.276  -0.267   0.049
    1UNL     C3    3   0.372  -0.222  -0.069
    1UNL     C4    4   0.367  -0.062  -0.076
    1UNL     O1    5   0.464  -0.005   0.002
    1UNL     C5    6   0.219  -0.009  -0.027
    1UNL     C6    7   0.116  -0.103  -0.087
    1UNL     C7    8   0.134  -0.194   0.035
    1UNL     O2    9   0.027  -0.268   0.096
    1UNL     C8   10  -0.103  -0.209   0.082
    1UNL     O3   11  -0.130  -0.154  -0.049
    1UNL     C9   12  -0.154  -0.248  -0.152
    1UNL    C10   13  -0.251  -0.186  -0.253
    1UNL     O4   14  -0.200  -0.066  -0.301
    1UNL    C11   15  -0.260   0.054  -0.249
    1UNL     O5   16  -0.317   0.030  -0.113
    1UNL    C12   17  -0.362   0.136  -0.037
    1UNL    C13   18  -0.280   0.150   0.088
    1UNL     O6   19  -0.268   0.029   0.154
    1UNL    C14   20  -0.362   0.270  -0.116
    1UNL     O7   21  -0.399   0.384  -0.037
    1UNL    C15   22  -0.220   0.302  -0.179
    1UNL     O8   23  -0.212   0.411  -0.264
    1UNL    C16   24  -0.164   0.180  -0.253
    1UNL     O9   25  -0.033   0.153  -0.193
    1UNL    C17   26  -0.203  -0.385  -0.104
    1UNL    O10   27  -0.093  -0.472  -0.063
    1UNL    C18   28  -0.294  -0.366   0.029
    1UNL    O11   29  -0.352  -0.490   0.068
    1UNL    C19   30  -0.207  -0.311   0.145
    1UNL    O12   31  -0.134  -0.418   0.209
    1UNL    C20   32   0.178  -0.065   0.107
    1UNL    C21   33   0.082   0.027   0.190
    1UNL    O13   34   0.138   0.153   0.213
    1UNL    C22   35   0.114   0.257   0.127
    1UNL    O14   36   0.013   0.268   0.063
    1UNL    C23   37   0.209   0.368   0.136
    1UNL    C24   38   0.333   0.355   0.201
    1UNL    C25   39   0.420   0.463   0.208
    1UNL    C26   40   0.391   0.585   0.138
    1UNL    C27   41   0.268   0.598   0.076
    1UNL    C28   42   0.179   0.488   0.074
    1UNL    C29   43   0.291  -0.098   0.198
    1UNL    O15   44   0.350  -0.024   0.276
    1UNL    O16   45   0.345  -0.219   0.162
    1UNL     H1   46   0.237  -0.465  -0.038
    1UNL     H2   47   0.192  -0.442   0.147
    1UNL     H3   48   0.359  -0.463   0.090
    1UNL     H4   49   0.358  -0.271  -0.161
    1UNL     H5   50   0.475  -0.244  -0.041
    1UNL     H6   51   0.394  -0.013  -0.173
    1UNL     H7   52   0.445  -0.030   0.096
    1UNL     H8   53   0.192   0.102  -0.029
    1UNL     H9   54   0.017  -0.067  -0.104
    1UNL    H10   55   0.147  -0.153  -0.186
    1UNL    H11   56  -0.103  -0.126   0.145
    1UNL    H12   57  -0.057  -0.265  -0.197
    1UNL    H13   58  -0.356  -0.171  -0.211
    1UNL    H14   59  -0.260  -0.259  -0.339
    1UNL    H15   60  -0.348   0.074  -0.314
    1UNL    H16   61  -0.467   0.117  -0.013
    1UNL    H17   62  -0.319   0.237   0.148
    1UNL    H18   63  -0.172   0.175   0.070
    1UNL    H19   64  -0.256  -0.042   0.085
    1UNL    H20   65  -0.428   0.270  -0.203
    1UNL    H21   66  -0.487   0.382   0.004
    1UNL    H22   67  -0.152   0.327  -0.089
    1UNL    H23   68  -0.281   0.477  -0.232
    1UNL    H24   69  -0.146   0.203  -0.350
    1UNL    H25   70  -0.017   0.189  -0.102
    1UNL    H26   71  -0.257  -0.448  -0.183
    1UNL    H27   72  -0.048  -0.417   0.002
    1UNL    H28   73  -0.369  -0.300   0.003
    1UNL    H29   74  -0.294  -0.529   0.137
    1UNL    H30   75  -0.272  -0.276   0.222
    1UNL    H31   76  -0.066  -0.370   0.268
    1UNL    H32   77  -0.009   0.041   0.125
    1UNL    H33   78   0.053  -0.016   0.281
    1UNL    H34   79   0.350   0.254   0.240
    1UNL    H35   80   0.520   0.451   0.247
    1UNL    H36   81   0.474   0.659   0.145
    1UNL    H37   82   0.236   0.696   0.021
    1UNL    H38   83   0.076   0.487   0.027
   0.00000   0.00000   0.00000   0.00000   0.00000   0.00000   0.00000   0.00000   0.00000
Generated with MDTraj, t= 94.0
 83
    1UNL     C1    1   0.249  -0.418   0.032
    1UNL     C2    2   0.280  -0.271   0.033
    1UNL     C3    3   0.370  -0.218  -0.077
    1UNL     C4    4   0.368  -0.060  -0.078
    1UNL     O1    5   0.485  -0.002  -0.020
    1UNL     C5    6   0.228  -0.010  -0.027
    1UNL     C6    7   0.111  -0.101  -0.085
    1UNL     C7    8   0.143  -0.194   0.038
    1UNL     O2    9   0.036  -0.274   0.085
    1UNL     C8   10  -0.103  -0.226   0.102
    1UNL     O3   11  -0.150  -0.157  -0.014
    1UNL     C9   12  -0.159  -0.248  -0.132
    1UNL    C10   13  -0.238  -0.176  -0.247
    1UNL     O4   14  -0.191  -0.056  -0.306
    1UNL    C11   15  -0.242   0.057  -0.240
    1UNL     O5   16  -0.292   0.035  -0.104
    1UNL    C12   17  -0.355   0.149  -0.041
    1UNL    C13   18  -0.305   0.159   0.109
    1UNL     O6   19  -0.286   0.028   0.164
    1UNL    C14   20  -0.346   0.282  -0.129
    1UNL     O7   21  -0.388   0.401  -0.062
    1UNL    C15   22  -0.197   0.303  -0.171
    1UNL     O8   23  -0.180   0.416  -0.251
    1UNL    C16   24  -0.144   0.172  -0.246
    1UNL     O9   25  -0.018   0.125  -0.194
    1UNL    C17   26  -0.224  -0.388  -0.094
    1UNL    O10   27  -0.120  -0.480  -0.075
    1UNL    C18   28  -0.305  -0.377   0.038
    1UNL    O11   29  -0.377  -0.498   0.064
    1UNL    C19   30  -0.213  -0.332   0.155
    1UNL    O12   31  -0.151  -0.451   0.210
    1UNL    C20   32   0.194  -0.060   0.118
    1UNL    C21   33   0.101   0.031   0.201
    1UNL    O13   34   0.152   0.161   0.207
    1UNL    C22   35   0.114   0.256   0.120
    1UNL    O14   36   0.027   0.236   0.039
    1UNL    C23   37   0.190   0.384   0.127
    1UNL    C24   38   0.309   0.381   0.204
    1UNL    C25   39   0.389   0.494   0.215
    1UNL    C26   40   0.360   0.617   0.146
    1UNL    C27   41   0.239   0.615   0.071
    1UNL    C28   42   0.154   0.505   0.066
    1UNL    C29   43   0.309  -0.109   0.196
    1UNL    O15   44   0.361  -0.041   0.278
    1UNL    O16   45   0.349  -0.234   0.156
    1UNL     H1   46   0.183  -0.437  -0.062
    1UNL     H2   47   0.185  -0.437   0.125
    1UNL     H3   48   0.333  -0.485   0.034
    1UNL     H4   49   0.360  -0.263  -0.172
    1UNL     H5   50   0.471  -0.248  -0.051
    1UNL     H6   51   0.397  -0.036  -0.183
    1UNL     H7   52   0.473  -0.004   0.077
    1UNL     H8   53   0.220   0.102  -0.047
    1UNL     H9   54   0.020  -0.042  -0.072
    1UNL    H10   55   0.133  -0.144  -0.187
    1UNL    H11   56  -0.098  -0.151   0.179
    1UNL    H12   57  -0.059  -0.263  -0.174
    1UNL    H13   58  -0.334  -0.154  -0.196
    1UNL    H14   59  -0.267  -0.247  -0.326
    1UNL    H15   60  -0.336   0.089  -0.289
    1UNL    H16   61  -0.461   0.114  -0.047
    1UNL    H17   62  -0.357   0.221   0.186
    1UNL    H18   63  -0.207   0.210   0.098
    1UNL    H19   64  -0.235  -0.022   0.094
    1UNL    H20   65  -0.399   0.263  -0.224
    1UNL    H21   66  -0.484   0.395  -0.057
    1UNL    H22   67  -0.136   0.323  -0.076
    1UNL    H23   68  -0.249   0.475  -0.226
    1UNL    H24   69  -0.121   0.203  -0.341
    1UNL    H25   70  -0.005   0.166  -0.103
    1UNL    H26   71  -0.291  -0.439  -0.172
    1UNL    H27   72  -0.075  -0.455   0.005
    1UNL    H28   73  -0.366  -0.299   0.005
    1UNL    H29   74  -0.348  -0.528   0.151
    1UNL    H30   75  -0.278  -0.293   0.232
    1UNL    H31   76  -0.080  -0.415   0.262
    1UNL    H32   77  -0.005   0.027   0.160
    1UNL    H33   78   0.101  -0.007   0.300
    1UNL    H34   79   0.349   0.283   0.223
    1UNL    H35   80   0.484   0.478   0.269
    1UNL    H36   81   0.429   0.695   0.158
    1UNL    H37   82   0.205   0.707   0.012
    1UNL    H38   83   0.076   0.503  -0.003
   0.00000   0.00000   0.00000   0.00000   0.00000   0.00000   0.00000   0.00000   0.00000
Generated with MDTraj, t= 95.0
 83
    1UNL     C1    1   0.251  -0.436  -0.009
    1UNL     C2    2   0.271  -0.288   0.015
    1UNL     C3    3   0.370  -0.220  -0.078
    1UNL     C4    4   0.362  -0.063  -0.085
    1UNL     O1    5   0.464  -0.005  -0.015
    1UNL     C5    6   0.225  -0.017  -0.032
    1UNL     C6    7   0.108  -0.109  -0.090
    1UNL     C7    8   0.136  -0.207   0.030
    1UNL     O2    9   0.034  -0.282   0.092
    1UNL     C8   10  -0.094  -0.224   0.109
    1UNL     O3   11  -0.148  -0.160  -0.001
    1UNL     C9   12  -0.172  -0.245  -0.116
    1UNL    C10   13  -0.244  -0.176  -0.233
    1UNL     O4   14  -0.172  -0.063  -0.282
    1UNL    C11   15  -0.228   0.059  -0.241
    1UNL     O5   16  -0.269   0.056  -0.105
    1UNL    C12   17  -0.345   0.162  -0.058
    1UNL    C13   18  -0.308   0.176   0.093
    1UNL     O6   19  -0.321   0.050   0.160
    1UNL    C14   20  -0.325   0.300  -0.134
    1UNL     O7   21  -0.344   0.415  -0.059
    1UNL    C15   22  -0.178   0.308  -0.185
    1UNL     O8   23  -0.160   0.421  -0.258
    1UNL    C16   24  -0.130   0.180  -0.266
    1UNL     O9   25   0.005   0.153  -0.237
    1UNL    C17   26  -0.231  -0.387  -0.077
    1UNL    O10   27  -0.133  -0.486  -0.068
    1UNL    C18   28  -0.301  -0.376   0.061
    1UNL    O11   29  -0.360  -0.498   0.106
    1UNL    C19   30  -0.192  -0.330   0.165
    1UNL    O12   31  -0.110  -0.442   0.197
    1UNL    C20   32   0.186  -0.079   0.104
    1UNL    C21   33   0.100   0.013   0.195
    1UNL    O13   34   0.161   0.141   0.224
    1UNL    C22   35   0.117   0.242   0.142
    1UNL    O14   36   0.022   0.230   0.065
    1UNL    C23   37   0.185   0.377   0.148
    1UNL    C24   38   0.300   0.408   0.218
    1UNL    C25   39   0.361   0.536   0.222
    1UNL    C26   40   0.309   0.636   0.139
    1UNL    C27   41   0.192   0.608   0.061
    1UNL    C28   42   0.132   0.481   0.069
    1UNL    C29   43   0.303  -0.129   0.185
    1UNL    O15   44   0.355  -0.050   0.257
    1UNL    O16   45   0.330  -0.263   0.149
    1UNL     H1   46   0.187  -0.454  -0.100
    1UNL     H2   47   0.204  -0.485   0.084
    1UNL     H3   48   0.352  -0.476  -0.015
    1UNL     H4   49   0.354  -0.249  -0.180
    1UNL     H5   50   0.466  -0.265  -0.058
    1UNL     H6   51   0.367  -0.036  -0.191
    1UNL     H7   52   0.446  -0.017   0.082
    1UNL     H8   53   0.201   0.094  -0.044
    1UNL     H9   54   0.007  -0.062  -0.074
    1UNL    H10   55   0.136  -0.158  -0.184
    1UNL    H11   56  -0.079  -0.145   0.183
    1UNL    H12   57  -0.074  -0.260  -0.165
    1UNL    H13   58  -0.346  -0.146  -0.213
    1UNL    H14   59  -0.249  -0.247  -0.313
    1UNL    H15   60  -0.328   0.061  -0.289
    1UNL    H16   61  -0.456   0.135  -0.062
    1UNL    H17   62  -0.384   0.247   0.128
    1UNL    H18   63  -0.212   0.222   0.115
    1UNL    H19   64  -0.281  -0.022   0.102
    1UNL    H20   65  -0.385   0.308  -0.226
    1UNL    H21   66  -0.442   0.430  -0.045
    1UNL    H22   67  -0.116   0.315  -0.089
    1UNL    H23   68  -0.207   0.493  -0.209
    1UNL    H24   69  -0.131   0.199  -0.366
    1UNL    H25   70   0.014   0.158  -0.141
    1UNL    H26   71  -0.312  -0.434  -0.140
    1UNL    H27   72  -0.066  -0.452  -0.003
    1UNL    H28   73  -0.371  -0.298   0.061
    1UNL    H29   74  -0.278  -0.549   0.141
    1UNL    H30   75  -0.242  -0.303   0.259
    1UNL    H31   76  -0.019  -0.411   0.223
    1UNL    H32   77  -0.006   0.027   0.151
    1UNL    H33   78   0.089  -0.035   0.291
    1UNL    H34   79   0.338   0.321   0.272
    1UNL    H35   80   0.448   0.549   0.279
    1UNL    H36   81   0.334   0.744   0.142
    1UNL    H37   82   0.152   0.684   0.017
    1UNL    H38   83   0.032   0.459   0.021
   0.00000   0.00000   0.00000   0.00000   0.00000   0.00000   0.00000   0.00000   0.00000
Generated with MDTraj, t= 96.0
 83
    1UNL     C1    1   0.252  -0.432  -0.023
    1UNL     C2    2   0.280  -0.285  -0.001
    1UNL     C3    3   0.346  -0.216  -0.128
    1UNL     C4    4   0.363  -0.059  -0.096
    1UNL     O1    5   0.480  -0.019  -0.021
    1UNL     C5    6   0.228  -0.017  -0.023
    1UNL     C6    7   0.102  -0.079  -0.078
    1UNL     C7    8   0.140  -0.202   0.022
    1UNL     O2    9   0.036  -0.288   0.081
    1UNL     C8   10  -0.084  -0.221   0.120
    1UNL     O3   11  -0.152  -0.154   0.016
    1UNL     C9   12  -0.174  -0.233  -0.094
    1UNL    C10   13  -0.245  -0.160  -0.203
    1UNL     O4   14  -0.155  -0.064  -0.261
    1UNL    C11   15  -0.204   0.065  -0.234
    1UNL     O5   16  -0.243   0.073  -0.099
    1UNL    C12   17  -0.329   0.178  -0.056
    1UNL    C13   18  -0.303   0.199   0.093
    1UNL     O6   19  -0.315   0.072   0.151
    1UNL    C14   20  -0.301   0.306  -0.140
    1UNL     O7   21  -0.333   0.422  -0.073
    1UNL    C15   22  -0.154   0.312  -0.193
    1UNL     O8   23  -0.139   0.420  -0.275
    1UNL    C16   24  -0.104   0.181  -0.268
    1UNL     O9   25   0.022   0.154  -0.234
    1UNL    C17   26  -0.239  -0.371  -0.058
    1UNL    O10   27  -0.144  -0.476  -0.069
    1UNL    C18   28  -0.308  -0.371   0.084
    1UNL    O11   29  -0.348  -0.505   0.118
    1UNL    C19   30  -0.189  -0.326   0.178
    1UNL    O12   31  -0.111  -0.434   0.229
    1UNL    C20   32   0.194  -0.087   0.112
    1UNL    C21   33   0.100   0.002   0.197
    1UNL    O13   34   0.152   0.138   0.209
    1UNL    C22   35   0.097   0.227   0.118
    1UNL    O14   36   0.008   0.201   0.039
    1UNL    C23   37   0.147   0.363   0.129
    1UNL    C24   38   0.249   0.383   0.217
    1UNL    C25   39   0.306   0.510   0.235
    1UNL    C26   40   0.256   0.615   0.163
    1UNL    C27   41   0.152   0.597   0.069
    1UNL    C28   42   0.099   0.473   0.056
    1UNL    C29   43   0.316  -0.145   0.183
    1UNL    O15   44   0.363  -0.085   0.274
    1UNL    O16   45   0.359  -0.257   0.117
    1UNL     H1   46   0.192  -0.447  -0.115
    1UNL     H2   47   0.189  -0.476   0.059
    1UNL     H3   48   0.352  -0.487  -0.013
    1UNL     H4   49   0.290  -0.246  -0.218
    1UNL     H5   50   0.441  -0.253  -0.157
    1UNL     H6   51   0.364   0.005  -0.184
    1UNL     H7   52   0.472  -0.047   0.072
    1UNL     H8   53   0.234   0.096  -0.009
    1UNL     H9   54   0.002  -0.029  -0.063
    1UNL    H10   55   0.108  -0.111  -0.178
    1UNL    H11   56  -0.053  -0.145   0.199
    1UNL    H12   57  -0.076  -0.257  -0.139
    1UNL    H13   58  -0.332  -0.114  -0.163
    1UNL    H14   59  -0.272  -0.227  -0.280
    1UNL    H15   60  -0.301   0.069  -0.288
    1UNL    H16   61  -0.437   0.139  -0.066
    1UNL    H17   62  -0.351   0.281   0.147
    1UNL    H18   63  -0.196   0.220   0.098
    1UNL    H19   64  -0.254   0.015   0.093
    1UNL    H20   65  -0.359   0.307  -0.235
    1UNL    H21   66  -0.433   0.424  -0.058
    1UNL    H22   67  -0.081   0.327  -0.105
    1UNL    H23   68  -0.173   0.510  -0.242
    1UNL    H24   69  -0.104   0.198  -0.368
    1UNL    H25   70   0.031   0.169  -0.131
    1UNL    H26   71  -0.316  -0.403  -0.129
    1UNL    H27   72  -0.085  -0.463   0.014
    1UNL    H28   73  -0.393  -0.307   0.087
    1UNL    H29   74  -0.272  -0.560   0.111
    1UNL    H30   75  -0.241  -0.283   0.267
    1UNL    H31   76  -0.015  -0.402   0.245
    1UNL    H32   77  -0.001   0.017   0.140
    1UNL    H33   78   0.080  -0.046   0.293
    1UNL    H34   79   0.283   0.297   0.272
    1UNL    H35   80   0.384   0.523   0.313
    1UNL    H36   81   0.299   0.709   0.175
    1UNL    H37   82   0.087   0.680   0.020
    1UNL    H38   83   0.011   0.467   0.002
   0.00000   0.00000   0.00000   0.00000   0.00000   0.00000   0.00000   0.00000   0.00000
Generated with MDTraj, t= 97.0
 83
    1UNL     C1    1   0.214  -0.438  -0.031
    1UNL     C2    2   0.264  -0.289  -0.010
    1UNL     C3    3   0.344  -0.217  -0.126
    1UNL     C4    4   0.355  -0.061  -0.109
    1UNL     O1    5   0.467  -0.008  -0.038
    1UNL     C5    6   0.230  -0.010  -0.033
    1UNL     C6    7   0.098  -0.084  -0.082
    1UNL     C7    8   0.133  -0.196   0.024
    1UNL     O2    9   0.035  -0.280   0.090
    1UNL     C8   10  -0.083  -0.222   0.131
    1UNL     O3   11  -0.142  -0.154   0.023
    1UNL     C9   12  -0.162  -0.240  -0.090
    1UNL    C10   13  -0.228  -0.180  -0.216
    1UNL     O4   14  -0.160  -0.066  -0.271
    1UNL    C11   15  -0.219   0.062  -0.236
    1UNL     O5   16  -0.236   0.075  -0.095
    1UNL    C12   17  -0.310   0.194  -0.061
    1UNL    C13   18  -0.272   0.226   0.083
    1UNL     O6   19  -0.279   0.105   0.151
    1UNL    C14   20  -0.296   0.316  -0.157
    1UNL     O7   21  -0.317   0.445  -0.097
    1UNL    C15   22  -0.145   0.314  -0.207
    1UNL     O8   23  -0.113   0.425  -0.283
    1UNL    C16   24  -0.113   0.176  -0.283
    1UNL     O9   25   0.011   0.128  -0.240
    1UNL    C17   26  -0.231  -0.377  -0.045
    1UNL    O10   27  -0.125  -0.478  -0.060
    1UNL    C18   28  -0.297  -0.363   0.100
    1UNL    O11   29  -0.370  -0.479   0.135
    1UNL    C19   30  -0.175  -0.337   0.189
    1UNL    O12   31  -0.101  -0.455   0.221
    1UNL    C20   32   0.205  -0.083   0.101
    1UNL    C21   33   0.106  -0.005   0.192
    1UNL    O13   34   0.154   0.126   0.224
    1UNL    C22   35   0.095   0.218   0.136
    1UNL    O14   36   0.020   0.192   0.042
    1UNL    C23   37   0.131   0.363   0.157
    1UNL    C24   38   0.231   0.389   0.246
    1UNL    C25   39   0.275   0.523   0.253
    1UNL    C26   40   0.215   0.620   0.171
    1UNL    C27   41   0.112   0.590   0.089
    1UNL    C28   42   0.074   0.459   0.080
    1UNL    C29   43   0.325  -0.150   0.167
    1UNL    O15   44   0.380  -0.089   0.256
    1UNL    O16   45   0.353  -0.273   0.104
    1UNL     H1   46   0.150  -0.440  -0.122
    1UNL     H2   47   0.150  -0.484   0.045
    1UNL     H3   48   0.305  -0.514  -0.030
    1UNL     H4   49   0.307  -0.257  -0.222
    1UNL     H5   50   0.444  -0.249  -0.131
    1UNL     H6   51   0.362  -0.005  -0.203
    1UNL     H7   52   0.462  -0.029   0.058
    1UNL     H8   53   0.229   0.103  -0.018
    1UNL     H9   54   0.003  -0.026  -0.088
    1UNL    H10   55   0.113  -0.108  -0.182
    1UNL    H11   56  -0.064  -0.148   0.219
    1UNL    H12   57  -0.062  -0.275  -0.125
    1UNL    H13   58  -0.320  -0.136  -0.182
    1UNL    H14   59  -0.249  -0.249  -0.293
    1UNL    H15   60  -0.312   0.066  -0.291
    1UNL    H16   61  -0.411   0.139  -0.060
    1UNL    H17   62  -0.344   0.296   0.129
    1UNL    H18   63  -0.175   0.273   0.090
    1UNL    H19   64  -0.237   0.027   0.099
    1UNL    H20   65  -0.366   0.292  -0.241
    1UNL    H21   66  -0.410   0.458  -0.066
    1UNL    H22   67  -0.083   0.306  -0.108
    1UNL    H23   68  -0.154   0.502  -0.247
    1UNL    H24   69  -0.106   0.190  -0.384
    1UNL    H25   70   0.012   0.134  -0.146
    1UNL    H26   71  -0.303  -0.403  -0.121
    1UNL    H27   72  -0.100  -0.490   0.030
    1UNL    H28   73  -0.369  -0.283   0.092
    1UNL    H29   74  -0.303  -0.555   0.137
    1UNL    H30   75  -0.220  -0.294   0.283
    1UNL    H31   76  -0.016  -0.427   0.253
    1UNL    H32   77   0.002   0.016   0.145
    1UNL    H33   78   0.095  -0.046   0.293
    1UNL    H34   79   0.282   0.307   0.295
    1UNL    H35   80   0.362   0.543   0.308
    1UNL    H36   81   0.262   0.721   0.171
    1UNL    H37   82   0.073   0.675   0.018
    1UNL    H38   83   0.003   0.431   0.004
   0.00000   0.00000   0.00000   0.00000   0.00000   0.00000   0.00000   0.00000   0.00000
Generated with MDTraj, t= 98.0
 83
    1UNL     C1    1   0.238  -0.435  -0.035
    1UNL     C2    2   0.266  -0.288  -0.011
    1UNL     C3    3   0.348  -0.222  -0.120
    1UNL     C4    4   0.346  -0.071  -0.112
    1UNL     O1    5   0.466  -0.008  -0.060
    1UNL     C5    6   0.222  -0.022  -0.037
    1UNL     C6    7   0.092  -0.097  -0.078
    1UNL     C7    8   0.132  -0.211   0.027
    1UNL     O2    9   0.032  -0.283   0.098
    1UNL     C8   10  -0.097  -0.220   0.122
    1UNL     O3   11  -0.155  -0.152   0.010
    1UNL     C9   12  -0.179  -0.244  -0.095
    1UNL    C10   13  -0.245  -0.177  -0.218
    1UNL     O4   14  -0.163  -0.071  -0.267
    1UNL    C11   15  -0.212   0.055  -0.236
    1UNL     O5   16  -0.275   0.070  -0.111
    1UNL    C12   17  -0.312   0.202  -0.067
    1UNL    C13   18  -0.233   0.211   0.069
    1UNL     O6   19  -0.247   0.095   0.145
    1UNL    C14   20  -0.283   0.318  -0.163
    1UNL     O7   21  -0.308   0.451  -0.111
    1UNL    C15   22  -0.145   0.309  -0.223
    1UNL     O8   23  -0.131   0.403  -0.324
    1UNL    C16   24  -0.104   0.160  -0.270
    1UNL     O9   25   0.027   0.125  -0.224
    1UNL    C17   26  -0.258  -0.376  -0.045
    1UNL    O10   27  -0.165  -0.477  -0.056
    1UNL    C18   28  -0.318  -0.373   0.099
    1UNL    O11   29  -0.361  -0.501   0.140
    1UNL    C19   30  -0.196  -0.334   0.184
    1UNL    O12   31  -0.126  -0.456   0.221
    1UNL    C20   32   0.203  -0.087   0.110
    1UNL    C21   33   0.124   0.002   0.212
    1UNL    O13   34   0.175   0.133   0.229
    1UNL    C22   35   0.120   0.227   0.143
    1UNL    O14   36   0.060   0.194   0.043
    1UNL    C23   37   0.146   0.374   0.167
    1UNL    C24   38   0.246   0.420   0.253
    1UNL    C25   39   0.263   0.554   0.274
    1UNL    C26   40   0.175   0.645   0.219
    1UNL    C27   41   0.085   0.599   0.131
    1UNL    C28   42   0.070   0.463   0.098
    1UNL    C29   43   0.338  -0.145   0.159
    1UNL    O15   44   0.416  -0.073   0.220
    1UNL    O16   45   0.357  -0.272   0.109
    1UNL     H1   46   0.153  -0.454  -0.107
    1UNL     H2   47   0.213  -0.488   0.059
    1UNL     H3   48   0.339  -0.489  -0.053
    1UNL     H4   49   0.307  -0.242  -0.220
    1UNL     H5   50   0.440  -0.272  -0.117
    1UNL     H6   51   0.347  -0.022  -0.212
    1UNL     H7   52   0.468  -0.029   0.036
    1UNL     H8   53   0.210   0.090  -0.035
    1UNL     H9   54  -0.005  -0.048  -0.057
    1UNL    H10   55   0.109  -0.125  -0.176
    1UNL    H11   56  -0.080  -0.140   0.205
    1UNL    H12   57  -0.077  -0.286  -0.112
    1UNL    H13   58  -0.342  -0.135  -0.190
    1UNL    H14   59  -0.260  -0.245  -0.302
    1UNL    H15   60  -0.288   0.066  -0.313
    1UNL    H16   61  -0.422   0.206  -0.047
    1UNL    H17   62  -0.257   0.306   0.121
    1UNL    H18   63  -0.126   0.217   0.053
    1UNL    H19   64  -0.220   0.018   0.086
    1UNL    H20   65  -0.352   0.316  -0.251
    1UNL    H21   66  -0.392   0.473  -0.069
    1UNL    H22   67  -0.064   0.335  -0.142
    1UNL    H23   68  -0.161   0.495  -0.297
    1UNL    H24   69  -0.094   0.168  -0.371
    1UNL    H25   70   0.040   0.158  -0.128
    1UNL    H26   71  -0.337  -0.403  -0.111
    1UNL    H27   72  -0.110  -0.473   0.031
    1UNL    H28   73  -0.407  -0.313   0.127
    1UNL    H29   74  -0.282  -0.565   0.134
    1UNL    H30   75  -0.239  -0.285   0.276
    1UNL    H31   76  -0.034  -0.435   0.257
    1UNL    H32   77   0.014   0.032   0.192
    1UNL    H33   78   0.120  -0.050   0.307
    1UNL    H34   79   0.314   0.351   0.299
    1UNL    H35   80   0.354   0.580   0.331
    1UNL    H36   81   0.177   0.747   0.245
    1UNL    H37   82   0.031   0.660   0.076
    1UNL    H38   83  -0.008   0.435   0.023
   0.00000   0.00000   0.00000   0.00000   0.00000   0.00000   0.00000   0.00000   0.00000
Generated with MDTraj, t= 99.0
 83
    1UNL     C1    1   0.239  -0.434   0.001
    1UNL     C2    2   0.256  -0.286   0.001
    1UNL     C3    3   0.326  -0.238  -0.131
    1UNL     C4    4   0.339  -0.082  -0.135
    1UNL     O1    5   0.470  -0.050  -0.086
    1UNL     C5    6   0.226  -0.017  -0.049
    1UNL     C6    7   0.094  -0.094  -0.075
    1UNL     C7    8   0.130  -0.194   0.034
    1UNL     O2    9   0.046  -0.270   0.112
    1UNL     C8   10  -0.088  -0.217   0.120
    1UNL     O3   11  -0.140  -0.165  -0.000
    1UNL     C9   12  -0.183  -0.250  -0.108
    1UNL    C10   13  -0.266  -0.182  -0.214
    1UNL     O4   14  -0.187  -0.090  -0.289
    1UNL    C11   15  -0.215   0.045  -0.245
    1UNL     O5   16  -0.256   0.057  -0.106
    1UNL    C12   17  -0.312   0.185  -0.071
    1UNL    C13   18  -0.237   0.218   0.064
    1UNL     O6   19  -0.241   0.102   0.146
    1UNL    C14   20  -0.287   0.300  -0.171
    1UNL     O7   21  -0.287   0.430  -0.103
    1UNL    C15   22  -0.151   0.296  -0.246
    1UNL     O8   23  -0.158   0.368  -0.366
    1UNL    C16   24  -0.102   0.152  -0.276
    1UNL     O9   25   0.031   0.121  -0.225
    1UNL    C17   26  -0.262  -0.377  -0.055
    1UNL    O10   27  -0.186  -0.495  -0.064
    1UNL    C18   28  -0.311  -0.353   0.094
    1UNL    O11   29  -0.381  -0.468   0.136
    1UNL    C19   30  -0.187  -0.324   0.187
    1UNL    O12   31  -0.110  -0.448   0.198
    1UNL    C20   32   0.216  -0.069   0.100
    1UNL    C21   33   0.146   0.021   0.209
    1UNL    O13   34   0.204   0.145   0.211
    1UNL    C22   35   0.133   0.243   0.141
    1UNL    O14   36   0.058   0.212   0.052
    1UNL    C23   37   0.154   0.387   0.178
    1UNL    C24   38   0.252   0.423   0.264
    1UNL    C25   39   0.264   0.552   0.305
    1UNL    C26   40   0.174   0.645   0.273
    1UNL    C27   41   0.076   0.610   0.183
    1UNL    C28   42   0.064   0.478   0.135
    1UNL    C29   43   0.336  -0.131   0.158
    1UNL    O15   44   0.403  -0.066   0.237
    1UNL    O16   45   0.355  -0.257   0.110
    1UNL     H1   46   0.157  -0.456  -0.077
    1UNL     H2   47   0.203  -0.477   0.099
    1UNL     H3   48   0.336  -0.483  -0.006
    1UNL     H4   49   0.284  -0.282  -0.222
    1UNL     H5   50   0.427  -0.270  -0.132
    1UNL     H6   51   0.328  -0.040  -0.238
    1UNL     H7   52   0.483  -0.081   0.006
    1UNL     H8   53   0.220   0.096  -0.050
    1UNL     H9   54   0.001  -0.047  -0.047
    1UNL    H10   55   0.089  -0.138  -0.172
    1UNL    H11   56  -0.083  -0.134   0.200
    1UNL    H12   57  -0.085  -0.283  -0.148
    1UNL    H13   58  -0.354  -0.128  -0.170
    1UNL    H14   59  -0.303  -0.258  -0.287
    1UNL    H15   60  -0.296   0.065  -0.315
    1UNL    H16   61  -0.420   0.173  -0.062
    1UNL    H17   62  -0.285   0.297   0.128
    1UNL    H18   63  -0.139   0.257   0.038
    1UNL    H19   64  -0.217   0.024   0.089
    1UNL    H20   65  -0.376   0.301  -0.239
    1UNL    H21   66  -0.377   0.429  -0.062
    1UNL    H22   67  -0.068   0.346  -0.178
    1UNL    H23   68  -0.176   0.467  -0.352
    1UNL    H24   69  -0.087   0.156  -0.377
    1UNL    H25   70   0.034   0.142  -0.132
    1UNL    H26   71  -0.344  -0.382  -0.120
    1UNL    H27   72  -0.127  -0.488   0.011
    1UNL    H28   73  -0.379  -0.266   0.116
    1UNL    H29   74  -0.321  -0.542   0.140
    1UNL    H30   75  -0.215  -0.287   0.287
    1UNL    H31   76  -0.023  -0.431   0.233
    1UNL    H32   77   0.034   0.034   0.192
    1UNL    H33   78   0.158  -0.010   0.313
    1UNL    H34   79   0.312   0.345   0.309
    1UNL    H35   80   0.329   0.589   0.380
    1UNL    H36   81   0.186   0.748   0.312
    1UNL    H37   82  -0.011   0.678   0.163
    1UNL    H38   83  -0.021   0.453   0.082
   0.00000   0.00000   0.00000   0.00000   0.00000   0.00000   0.00000   0.00000   0.00000
