[ moleculetype ]
; name        nrexcl
res           1

[ atoms ]
;    nr  type  resnr resid  atom  cgnr     charge       mass
      1 TC3       1 res   C1        1      0.000     36.000
      2 TC3       1 res   C2        2      0.000     36.000
      3 TC3       1 res   C3        3      0.000     36.000
      4 TN6d      1 res   C4        4      0.000     36.000
      5 TC3       1 res   C5        5      0.000     36.000
      6 TC5       1 res   C6        6      0.000     36.000
      7 TN6d      1 res   C7        7      0.000     36.000
      8 TC5       1 res   C8        8      0.000     36.000
      9 TC5       1 res   C9        9      0.000     36.000
     10 TN2a      1 res   C10      10      0.000     36.000
     11 TC5       1 res   C11      11      0.000     36.000
     12 TC5       1 res   C12      12      0.000     36.000
     13 N4a       1 res   C13      13      0.000     72.000

[ constraints ]
;  ai    aj   funct      b0(nm)
    2     3     1      0.27402
    6    12     1      0.24265
    4     5     1      0.26714
    2    12     1      0.26633
    8    11     1      0.24995
    9    11     1      0.30209
    6     8     1      0.18469
    3     4     1      0.25685
    7     8     1      0.21745
    5     6     1      0.25343
   12    13     1      0.36894
    6     7     1      0.21727
    3    12     1      0.29083
    8     9     1      0.22228
    4    12     1      0.28572

[ bonds ]
;  ai    aj   funct      b0(nm)          k(kJ/mol/nm^2)
    1     2     1      0.28151           4218.0
    9    10     1      0.26226           2324.4

[ angles ]
;  ai    aj    ak  funct     th0(deg)        k(kJ/mol/rad^2)
    1     2     3     1    139.38470            83.33
    1     2    12     1     83.20239            57.11
    2     3     4     1     71.54503          2012.80
    2     3    12     1     56.16918          4231.31
    2    12     3     1     58.72841          3743.53
    2    12     4     1     68.39000          2118.40
    2    12     6     1    138.69291           813.97
    2    12    13     1     76.09403           155.75
    3     2    12     1     65.10248          5655.83
    3     4     5     1    103.40293           244.09
    3     4    12     1     64.56531          5763.28
    3    12     4     1     52.89786          4840.55
    3    12     6     1     80.27489          1034.30
    3    12    13     1     76.62069           731.13
    4     3    12     1     62.53686          3969.23
    4     5     6     1     91.92130           483.99
    4    12     6     1     89.80774           560.03
    4    12    13     1    127.58963           431.91
    5     4    12     1     69.57306          1610.69
    5     6     7     1    166.18837           173.01
    5     6     8     1    117.84295          1144.00
    5     6    12     1     79.00858          2351.74
    6     7     8     1     50.27736         10175.92
    6     8     7     1     64.81281          4416.66
    6     8     9     1    152.95528          1489.79
    6     8    11     1    126.96664          1554.33
    6    12    13     1     93.22910           226.74
    7     6     8     1     64.90979          4868.78
    7     6    12     1     92.18067           459.00
    7     8     9     1     88.67615          1385.58
    7     8    11     1    166.80402          1077.58
    8     6    12     1    146.36778           236.42
    8     9    10     1    148.32298            36.21
    8     9    11     1     54.39130         10771.50
    8    11     9     1     46.29912         14958.40
    9     8    11     1     79.30957          5536.86
   10     9    11     1     98.01168            36.78

[ dihedrals ]
;  ai    aj    ak    al  funct   phi0(deg)        k(kJ/mol)   mult
    1     2     3     4     1    150.50762       22.194      1
    1     2     3    12     1   -140.84543       21.485      1
    1     2    12     3     1     21.71994       13.567      1
    1     2    12     4     1     81.42282       14.953      1
    1     2    12     6     1     23.26481       12.893      1
    1     2    12    13     1    -57.43237       15.709      1
    2     3     4     5     1    -59.99841        7.808      1
    2     3     4    12     1   -119.03197        4.003      1
    2     3    12     4     1     94.98381        5.551      1
    2     3    12     6     1     -1.09340        9.986      1
    2     3    12    13     1    -97.19105       12.931      1
    2    12     3     4     1    -94.98381        5.551      1
    2    12     4     3     1    113.03897        4.017      1
    2    12     4     5     1     -5.08747       12.896      1
    2    12     6     5     1    -85.00442       10.029      1
    2    12     6     7     1     84.85685       15.783      1
    2    12     6     8     1     41.10278       17.112      1
    3     2    12     4     1   -121.95193        4.724      1
    3     2    12     6     1    177.19170       12.885      1
    3     2    12    13     1     97.01747        8.537      1
    3     4     5     6     1    161.40016       11.478      1
    3     4    12     6     1   -102.01322        7.806      1
    3     4    12    13     1    165.14150       14.407      1
    3    12     4     5     1     61.63895       12.191      1
    3    12     6     5     1    -87.89567        9.276      1
    3    12     6     7     1     83.80151       15.059      1
    3    12     6     8     1     39.09613       15.775      1
    4     3     2    12     1    111.94264        4.736      1
    4     3    12     6     1     84.07450        9.269      1
    4     3    12    13     1    -12.87213       12.955      1
    4     5     6     7     1    105.66649       24.092      1
    4     5     6     8     1    -12.47546       15.006      1
    4     5     6    12     1    137.94495        9.246      1
    4    12     6     5     1   -140.83142        8.556      1
    4    12     6     7     1     30.76729       15.714      1
    4    12     6     8     1    -12.99892       15.771      1
    5     4     3    12     1   -120.25314        7.794      1
    5     4    12     6     1    140.06496        9.290      1
    5     4    12    13     1     46.15522       13.668      1
    5     6     7     8     1     56.51132       20.479      1
    5     6     8     7     1    -14.18136       15.072      1
    5     6     8     9     1    -15.62525       21.478      1
    5     6     8    11     1    167.48189       17.031      1
    5     6    12    13     1    -12.00474       12.191      1
    6     5     4    12     1   -142.98339        8.501      1
    6     7     8     9     1      0.93980       11.431      1
    6     7     8    11     1      1.76183       27.446      1
    6     8     9    10     1     -3.84293       27.945      1
    6     8     9    11     1     -1.04324       19.707      1
    6     8    11     9     1      0.83282       12.899      1
    7     6     8     9     1   -177.03106       19.704      1
    7     6     8    11     1     -0.12174       12.237      1
    7     6    12    13     1    159.09558       15.676      1
    7     8     6    12     1   -130.01119       15.016      1
    7     8     9    10     1     -3.64896       30.653      1
    7     8     9    11     1      0.00057       10.772      1
    7     8    11     9     1    178.07776       28.721      1
    8     6    12    13     1    116.18929       16.441      1
    8     7     6    12     1     25.94546       10.792      1
    8    11     9    10     1     -1.33911       23.818      1
    9     8     6    12     1   -127.24116       21.044      1
   10     9     8    11     1    175.09171       30.195      1
   11     8     6    12     1     49.60038       17.030      1
