Generated with MDTraj, t= 0.0
 43
    1UNL     C1    1  -0.503  -0.127  -0.053
    1UNL     C2    2  -0.411  -0.013  -0.093
    1UNL     O1    3  -0.376  -0.021  -0.233
    1UNL     C3    4  -0.278   0.063  -0.271
    1UNL     C4    5  -0.198   0.140  -0.190
    1UNL     C5    6  -0.103   0.233  -0.253
    1UNL     O2    7  -0.039   0.309  -0.178
    1UNL     O3    8  -0.094   0.230  -0.377
    1UNL     C6    9  -0.211   0.128  -0.041
    1UNL     C7   10  -0.077   0.138   0.036
    1UNL     C8   11   0.004   0.013   0.034
    1UNL     C9   12   0.139   0.018   0.065
    1UNL     N1   13   0.221   0.125   0.100
    1UNL    C10   14   0.350   0.078   0.121
    1UNL    C11   15   0.468   0.145   0.156
    1UNL    C12   16   0.583   0.071   0.171
    1UNL    C13   17   0.584  -0.067   0.152
    1UNL    C14   18   0.469  -0.135   0.117
    1UNL    C15   19   0.351  -0.062   0.101
    1UNL    C16   20   0.217  -0.100   0.066
    1UNL    C17   21   0.159  -0.223   0.034
    1UNL    C18   22   0.026  -0.224   0.004
    1UNL     N2   23  -0.050  -0.109   0.005
    1UNL    C19   24  -0.192  -0.125  -0.033
    1UNL    C20   25  -0.283  -0.004  -0.006
    1UNL     H1   26  -0.454  -0.223  -0.068
    1UNL     H2   27  -0.593  -0.127  -0.115
    1UNL     H3   28  -0.533  -0.120   0.051
    1UNL     H4   29  -0.465   0.083  -0.084
    1UNL     H5   30  -0.263   0.070  -0.378
    1UNL     H6   31  -0.275   0.212  -0.009
    1UNL     H7   32  -0.096   0.166   0.141
    1UNL     H8   33  -0.017   0.220  -0.006
    1UNL     H9   34   0.195   0.224   0.096
    1UNL    H10   35   0.467   0.251   0.170
    1UNL    H11   36   0.674   0.121   0.198
    1UNL    H12   37   0.676  -0.122   0.165
    1UNL    H13   38   0.469  -0.241   0.102
    1UNL    H14   39   0.218  -0.313   0.033
    1UNL    H15   40  -0.022  -0.317  -0.022
    1UNL    H16   41  -0.195  -0.149  -0.140
    1UNL    H17   42  -0.231  -0.214   0.019
    1UNL    H18   43  -0.311  -0.004   0.100
   0.00000   0.00000   0.00000   0.00000   0.00000   0.00000   0.00000   0.00000   0.00000
Generated with MDTraj, t= 1.0
 43
    1UNL     C1    1  -0.477  -0.162  -0.080
    1UNL     C2    2  -0.416  -0.019  -0.088
    1UNL     O1    3  -0.399   0.006  -0.231
    1UNL     C3    4  -0.300   0.080  -0.266
    1UNL     C4    5  -0.212   0.150  -0.188
    1UNL     C5    6  -0.099   0.221  -0.255
    1UNL     O2    7  -0.020   0.290  -0.189
    1UNL     O3    8  -0.087   0.200  -0.375
    1UNL     C6    9  -0.216   0.134  -0.039
    1UNL     C7   10  -0.079   0.148   0.040
    1UNL     C8   11   0.004   0.023   0.043
    1UNL     C9   12   0.136   0.027   0.080
    1UNL     N1   13   0.223   0.129   0.115
    1UNL    C10   14   0.352   0.073   0.140
    1UNL    C11   15   0.476   0.137   0.163
    1UNL    C12   16   0.591   0.066   0.154
    1UNL    C13   17   0.585  -0.067   0.122
    1UNL    C14   18   0.467  -0.130   0.102
    1UNL    C15   19   0.345  -0.064   0.113
    1UNL    C16   20   0.211  -0.092   0.078
    1UNL    C17   21   0.153  -0.217   0.046
    1UNL    C18   22   0.023  -0.215   0.010
    1UNL     N2   23  -0.049  -0.101   0.007
    1UNL    C19   24  -0.184  -0.111  -0.049
    1UNL    C20   25  -0.281  -0.008  -0.012
    1UNL     H1   26  -0.529  -0.175   0.019
    1UNL     H2   27  -0.397  -0.237  -0.080
    1UNL     H3   28  -0.541  -0.189  -0.159
    1UNL     H4   29  -0.484   0.058  -0.038
    1UNL     H5   30  -0.276   0.084  -0.377
    1UNL     H6   31  -0.284   0.201   0.018
    1UNL     H7   32  -0.106   0.163   0.145
    1UNL     H8   33  -0.017   0.245   0.011
    1UNL     H9   34   0.192   0.221   0.138
    1UNL    H10   35   0.484   0.244   0.164
    1UNL    H11   36   0.676   0.105   0.209
    1UNL    H12   37   0.671  -0.129   0.114
    1UNL    H13   38   0.471  -0.239   0.082
    1UNL    H14   39   0.215  -0.305   0.014
    1UNL    H15   40  -0.038  -0.306   0.004
    1UNL    H16   41  -0.156  -0.098  -0.156
    1UNL    H17   42  -0.210  -0.213  -0.037
    1UNL    H18   43  -0.305  -0.012   0.095
   0.00000   0.00000   0.00000   0.00000   0.00000   0.00000   0.00000   0.00000   0.00000
Generated with MDTraj, t= 2.0
 43
    1UNL     C1    1  -0.513  -0.130  -0.057
    1UNL     C2    2  -0.420  -0.005  -0.083
    1UNL     O1    3  -0.404   0.018  -0.229
    1UNL     C3    4  -0.295   0.092  -0.270
    1UNL     C4    5  -0.197   0.143  -0.188
    1UNL     C5    6  -0.084   0.215  -0.256
    1UNL     O2    7  -0.013   0.277  -0.177
    1UNL     O3    8  -0.073   0.210  -0.377
    1UNL     C6    9  -0.210   0.122  -0.043
    1UNL     C7   10  -0.080   0.131   0.041
    1UNL     C8   11  -0.003   0.003   0.043
    1UNL     C9   12   0.129   0.008   0.080
    1UNL     N1   13   0.211   0.120   0.111
    1UNL    C10   14   0.346   0.084   0.129
    1UNL    C11   15   0.466   0.156   0.146
    1UNL    C12   16   0.582   0.083   0.158
    1UNL    C13   17   0.582  -0.050   0.134
    1UNL    C14   18   0.471  -0.124   0.119
    1UNL    C15   19   0.347  -0.059   0.104
    1UNL    C16   20   0.215  -0.101   0.077
    1UNL    C17   21   0.170  -0.224   0.035
    1UNL    C18   22   0.041  -0.230  -0.004
    1UNL     N2   23  -0.050  -0.115   0.008
    1UNL    C19   24  -0.189  -0.128  -0.053
    1UNL    C20   25  -0.280  -0.014  -0.009
    1UNL     H1   26  -0.583  -0.106   0.029
    1UNL     H2   27  -0.455  -0.218  -0.030
    1UNL     H3   28  -0.567  -0.155  -0.141
    1UNL     H4   29  -0.477   0.091  -0.045
    1UNL     H5   30  -0.279   0.102  -0.377
    1UNL     H6   31  -0.276   0.205  -0.006
    1UNL     H7   32  -0.104   0.153   0.147
    1UNL     H8   33  -0.007   0.210  -0.007
    1UNL     H9   34   0.180   0.210   0.131
    1UNL    H10   35   0.458   0.267   0.154
    1UNL    H11   36   0.681   0.128   0.175
    1UNL    H12   37   0.682  -0.096   0.164
    1UNL    H13   38   0.483  -0.223   0.092
    1UNL    H14   39   0.239  -0.297   0.010
    1UNL    H15   40  -0.002  -0.324  -0.035
    1UNL    H16   41  -0.169  -0.125  -0.162
    1UNL    H17   42  -0.229  -0.220  -0.023
    1UNL    H18   43  -0.292  -0.018   0.101
   0.00000   0.00000   0.00000   0.00000   0.00000   0.00000   0.00000   0.00000   0.00000
Generated with MDTraj, t= 3.0
 43
    1UNL     C1    1  -0.522  -0.104  -0.051
    1UNL     C2    2  -0.414  -0.004  -0.091
    1UNL     O1    3  -0.371  -0.030  -0.225
    1UNL     C3    4  -0.267   0.058  -0.264
    1UNL     C4    5  -0.191   0.142  -0.180
    1UNL     C5    6  -0.077   0.220  -0.242
    1UNL     O2    7   0.000   0.279  -0.166
    1UNL     O3    8  -0.075   0.226  -0.364
    1UNL     C6    9  -0.211   0.129  -0.035
    1UNL     C7   10  -0.082   0.125   0.052
    1UNL     C8   11   0.002   0.007   0.023
    1UNL     C9   12   0.137   0.011   0.049
    1UNL     N1   13   0.209   0.124   0.082
    1UNL    C10   14   0.342   0.080   0.110
    1UNL    C11   15   0.452   0.154   0.155
    1UNL    C12   16   0.567   0.091   0.169
    1UNL    C13   17   0.579  -0.046   0.157
    1UNL    C14   18   0.473  -0.123   0.117
    1UNL    C15   19   0.347  -0.058   0.091
    1UNL    C16   20   0.218  -0.098   0.052
    1UNL    C17   21   0.156  -0.224   0.025
    1UNL    C18   22   0.025  -0.231  -0.013
    1UNL     N2   23  -0.053  -0.114  -0.006
    1UNL    C19   24  -0.202  -0.126  -0.026
    1UNL    C20   25  -0.293   0.001   0.004
    1UNL     H1   26  -0.498  -0.160   0.041
    1UNL     H2   27  -0.557  -0.173  -0.128
    1UNL     H3   28  -0.609  -0.050  -0.024
    1UNL     H4   29  -0.471   0.099  -0.099
    1UNL     H5   30  -0.243   0.052  -0.364
    1UNL     H6   31  -0.270   0.223  -0.015
    1UNL     H7   32  -0.094   0.139   0.164
    1UNL     H8   33  -0.022   0.207   0.007
    1UNL     H9   34   0.181   0.219   0.090
    1UNL    H10   35   0.452   0.256   0.176
    1UNL    H11   36   0.652   0.148   0.193
    1UNL    H12   37   0.675  -0.081   0.148
    1UNL    H13   38   0.496  -0.232   0.095
    1UNL    H14   39   0.214  -0.318   0.050
    1UNL    H15   40  -0.011  -0.323  -0.056
    1UNL    H16   41  -0.216  -0.149  -0.130
    1UNL    H17   42  -0.220  -0.207   0.039
    1UNL    H18   43  -0.332  -0.006   0.109
   0.00000   0.00000   0.00000   0.00000   0.00000   0.00000   0.00000   0.00000   0.00000
Generated with MDTraj, t= 4.0
 43
    1UNL     C1    1  -0.513  -0.129  -0.072
    1UNL     C2    2  -0.411  -0.018  -0.109
    1UNL     O1    3  -0.350  -0.046  -0.239
    1UNL     C3    4  -0.247   0.037  -0.264
    1UNL     C4    5  -0.181   0.128  -0.183
    1UNL     C5    6  -0.083   0.221  -0.242
    1UNL     O2    7  -0.034   0.302  -0.160
    1UNL     O3    8  -0.072   0.218  -0.365
    1UNL     C6    9  -0.219   0.132  -0.035
    1UNL     C7   10  -0.097   0.141   0.061
    1UNL     C8   11  -0.003   0.021   0.056
    1UNL     C9   12   0.135   0.033   0.059
    1UNL     N1   13   0.225   0.138   0.087
    1UNL    C10   14   0.360   0.092   0.093
    1UNL    C11   15   0.472   0.145   0.152
    1UNL    C12   16   0.575   0.055   0.175
    1UNL    C13   17   0.567  -0.081   0.157
    1UNL    C14   18   0.460  -0.133   0.096
    1UNL    C15   19   0.351  -0.049   0.065
    1UNL    C16   20   0.215  -0.082   0.037
    1UNL    C17   21   0.153  -0.206   0.012
    1UNL    C18   22   0.016  -0.211   0.007
    1UNL     N2   23  -0.059  -0.098   0.020
    1UNL    C19   24  -0.204  -0.118   0.006
    1UNL    C20   25  -0.301   0.002  -0.001
    1UNL     H1   26  -0.498  -0.216  -0.127
    1UNL     H2   27  -0.618  -0.099  -0.080
    1UNL     H3   28  -0.509  -0.166   0.031
    1UNL     H4   29  -0.471   0.081  -0.125
    1UNL     H5   30  -0.210   0.029  -0.366
    1UNL     H6   31  -0.280   0.226  -0.013
    1UNL     H7   32  -0.139   0.147   0.170
    1UNL     H8   33  -0.036   0.225   0.038
    1UNL     H9   34   0.184   0.223   0.121
    1UNL    H10   35   0.466   0.244   0.203
    1UNL    H11   36   0.667   0.102   0.216
    1UNL    H12   37   0.670  -0.134   0.161
    1UNL    H13   38   0.465  -0.237   0.087
    1UNL    H14   39   0.203  -0.297   0.015
    1UNL    H15   40  -0.040  -0.294  -0.040
    1UNL    H16   41  -0.207  -0.173  -0.083
    1UNL    H17   42  -0.232  -0.171   0.096
    1UNL    H18   43  -0.343   0.007   0.104
   0.00000   0.00000   0.00000   0.00000   0.00000   0.00000   0.00000   0.00000   0.00000
Generated with MDTraj, t= 5.0
 43
    1UNL     C1    1  -0.491  -0.143  -0.071
    1UNL     C2    2  -0.396  -0.024  -0.118
    1UNL     O1    3  -0.325  -0.056  -0.236
    1UNL     C3    4  -0.239   0.040  -0.265
    1UNL     C4    5  -0.183   0.139  -0.191
    1UNL     C5    6  -0.084   0.233  -0.241
    1UNL     O2    7  -0.065   0.336  -0.171
    1UNL     O3    8  -0.036   0.207  -0.352
    1UNL     C6    9  -0.219   0.143  -0.039
    1UNL     C7   10  -0.091   0.150   0.048
    1UNL     C8   11  -0.010   0.023   0.043
    1UNL     C9   12   0.131   0.025   0.066
    1UNL     N1   13   0.213   0.125   0.104
    1UNL    C10   14   0.341   0.077   0.128
    1UNL    C11   15   0.464   0.145   0.155
    1UNL    C12   16   0.576   0.063   0.141
    1UNL    C13   17   0.578  -0.068   0.100
    1UNL    C14   18   0.458  -0.137   0.089
    1UNL    C15   19   0.339  -0.062   0.090
    1UNL    C16   20   0.209  -0.095   0.061
    1UNL    C17   21   0.141  -0.213   0.024
    1UNL    C18   22   0.006  -0.216   0.006
    1UNL     N2   23  -0.065  -0.098   0.014
    1UNL    C19   24  -0.212  -0.108   0.034
    1UNL    C20   25  -0.296   0.010  -0.007
    1UNL     H1   26  -0.544  -0.177  -0.152
    1UNL     H2   27  -0.561  -0.104   0.005
    1UNL     H3   28  -0.443  -0.234  -0.027
    1UNL     H4   29  -0.466   0.066  -0.137
    1UNL     H5   30  -0.198   0.027  -0.369
    1UNL     H6   31  -0.281   0.233  -0.004
    1UNL     H7   32  -0.126   0.156   0.160
    1UNL     H8   33  -0.033   0.233   0.022
    1UNL     H9   34   0.188   0.222   0.126
    1UNL    H10   35   0.460   0.231   0.216
    1UNL    H11   36   0.670   0.110   0.151
    1UNL    H12   37   0.668  -0.115   0.111
    1UNL    H13   38   0.456  -0.249   0.073
    1UNL    H14   39   0.197  -0.303  -0.002
    1UNL    H15   40  -0.046  -0.306  -0.014
    1UNL    H16   41  -0.235  -0.178  -0.038
    1UNL    H17   42  -0.223  -0.142   0.137
    1UNL    H18   43  -0.359   0.029   0.087
   0.00000   0.00000   0.00000   0.00000   0.00000   0.00000   0.00000   0.00000   0.00000
Generated with MDTraj, t= 6.0
 43
    1UNL     C1    1  -0.515  -0.102  -0.099
    1UNL     C2    2  -0.393  -0.009  -0.131
    1UNL     O1    3  -0.316  -0.058  -0.243
    1UNL     C3    4  -0.212   0.023  -0.268
    1UNL     C4    5  -0.166   0.121  -0.183
    1UNL     C5    6  -0.083   0.227  -0.231
    1UNL     O2    7  -0.070   0.334  -0.168
    1UNL     O3    8  -0.032   0.210  -0.344
    1UNL     C6    9  -0.209   0.126  -0.037
    1UNL     C7   10  -0.097   0.138   0.064
    1UNL     C8   11  -0.015   0.016   0.077
    1UNL     C9   12   0.126   0.022   0.092
    1UNL     N1   13   0.208   0.131   0.112
    1UNL    C10   14   0.339   0.083   0.113
    1UNL    C11   15   0.462   0.148   0.133
    1UNL    C12   16   0.582   0.078   0.117
    1UNL    C13   17   0.577  -0.065   0.089
    1UNL    C14   18   0.457  -0.130   0.075
    1UNL    C15   19   0.337  -0.056   0.082
    1UNL    C16   20   0.201  -0.094   0.065
    1UNL    C17   21   0.142  -0.216   0.037
    1UNL    C18   22   0.007  -0.221   0.023
    1UNL     N2   23  -0.070  -0.109   0.051
    1UNL    C19   24  -0.216  -0.121   0.010
    1UNL    C20   25  -0.302   0.006  -0.002
    1UNL     H1   26  -0.604  -0.050  -0.128
    1UNL     H2   27  -0.514  -0.121   0.007
    1UNL     H3   28  -0.510  -0.198  -0.155
    1UNL     H4   29  -0.434   0.091  -0.161
    1UNL     H5   30  -0.167  -0.000  -0.366
    1UNL     H6   31  -0.272   0.221  -0.035
    1UNL     H7   32  -0.142   0.170   0.163
    1UNL     H8   33  -0.032   0.214   0.027
    1UNL     H9   34   0.187   0.230   0.142
    1UNL    H10   35   0.465   0.257   0.137
    1UNL    H11   36   0.673   0.124   0.158
    1UNL    H12   37   0.672  -0.124   0.077
    1UNL    H13   38   0.468  -0.235   0.069
    1UNL    H14   39   0.207  -0.292  -0.003
    1UNL    H15   40  -0.050  -0.319   0.025
    1UNL    H16   41  -0.213  -0.161  -0.084
    1UNL    H17   42  -0.268  -0.189   0.077
    1UNL    H18   43  -0.360   0.031   0.094
   0.00000   0.00000   0.00000   0.00000   0.00000   0.00000   0.00000   0.00000   0.00000
Generated with MDTraj, t= 7.0
 43
    1UNL     C1    1  -0.511  -0.117  -0.114
    1UNL     C2    2  -0.402  -0.011  -0.134
    1UNL     O1    3  -0.323  -0.039  -0.255
    1UNL     C3    4  -0.216   0.046  -0.271
    1UNL     C4    5  -0.169   0.135  -0.175
    1UNL     C5    6  -0.062   0.218  -0.214
    1UNL     O2    7  -0.011   0.288  -0.125
    1UNL     O3    8  -0.025   0.220  -0.334
    1UNL     C6    9  -0.212   0.130  -0.034
    1UNL     C7   10  -0.100   0.136   0.072
    1UNL     C8   11  -0.019   0.011   0.057
    1UNL     C9   12   0.118   0.018   0.077
    1UNL     N1   13   0.204   0.128   0.091
    1UNL    C10   14   0.336   0.084   0.099
    1UNL    C11   15   0.456   0.160   0.103
    1UNL    C12   16   0.578   0.095   0.095
    1UNL    C13   17   0.578  -0.047   0.079
    1UNL    C14   18   0.457  -0.119   0.081
    1UNL    C15   19   0.334  -0.055   0.088
    1UNL    C16   20   0.196  -0.100   0.086
    1UNL    C17   21   0.137  -0.225   0.070
    1UNL    C18   22   0.002  -0.225   0.046
    1UNL     N2   23  -0.078  -0.111   0.047
    1UNL    C19   24  -0.223  -0.131   0.012
    1UNL    C20   25  -0.308   0.001  -0.011
    1UNL     H1   26  -0.514  -0.179  -0.207
    1UNL     H2   27  -0.609  -0.082  -0.093
    1UNL     H3   28  -0.490  -0.186  -0.034
    1UNL     H4   29  -0.444   0.087  -0.159
    1UNL     H5   30  -0.167   0.037  -0.362
    1UNL     H6   31  -0.274   0.226  -0.036
    1UNL     H7   32  -0.131   0.150   0.171
    1UNL     H8   33  -0.037   0.219   0.042
    1UNL     H9   34   0.165   0.226   0.075
    1UNL    H10   35   0.443   0.265   0.078
    1UNL    H11   36   0.669   0.153   0.099
    1UNL    H12   37   0.674  -0.101   0.073
    1UNL    H13   38   0.447  -0.222   0.044
    1UNL    H14   39   0.193  -0.315   0.074
    1UNL    H15   40  -0.038  -0.320   0.038
    1UNL    H16   41  -0.232  -0.179  -0.078
    1UNL    H17   42  -0.273  -0.185   0.091
    1UNL    H18   43  -0.374   0.019   0.082
   0.00000   0.00000   0.00000   0.00000   0.00000   0.00000   0.00000   0.00000   0.00000
Generated with MDTraj, t= 8.0
 43
    1UNL     C1    1  -0.480  -0.140  -0.128
    1UNL     C2    2  -0.401  -0.012  -0.127
    1UNL     O1    3  -0.334  -0.003  -0.258
    1UNL     C3    4  -0.215   0.062  -0.268
    1UNL     C4    5  -0.154   0.129  -0.166
    1UNL     C5    6  -0.033   0.206  -0.197
    1UNL     O2    7   0.033   0.256  -0.108
    1UNL     O3    8  -0.010   0.218  -0.319
    1UNL     C6    9  -0.216   0.126  -0.025
    1UNL     C7   10  -0.113   0.131   0.092
    1UNL     C8   11  -0.026   0.010   0.074
    1UNL     C9   12   0.109   0.024   0.083
    1UNL     N1   13   0.194   0.140   0.069
    1UNL    C10   14   0.324   0.092   0.068
    1UNL    C11   15   0.442   0.161   0.045
    1UNL    C12   16   0.563   0.096   0.071
    1UNL    C13   17   0.560  -0.045   0.096
    1UNL    C14   18   0.439  -0.116   0.099
    1UNL    C15   19   0.321  -0.044   0.088
    1UNL    C16   20   0.186  -0.091   0.089
    1UNL    C17   21   0.136  -0.220   0.068
    1UNL    C18   22  -0.000  -0.224   0.047
    1UNL     N2   23  -0.082  -0.115   0.048
    1UNL    C19   24  -0.220  -0.134   0.004
    1UNL    C20   25  -0.302  -0.005  -0.011
    1UNL     H1   26  -0.431  -0.213  -0.202
    1UNL     H2   27  -0.586  -0.138  -0.143
    1UNL     H3   28  -0.474  -0.188  -0.035
    1UNL     H4   29  -0.457   0.078  -0.123
    1UNL     H5   30  -0.173   0.071  -0.368
    1UNL     H6   31  -0.293   0.208  -0.015
    1UNL     H7   32  -0.166   0.124   0.177
    1UNL     H8   33  -0.056   0.225   0.097
    1UNL     H9   34   0.166   0.214   0.000
    1UNL    H10   35   0.430   0.261   0.013
    1UNL    H11   36   0.657   0.142   0.045
    1UNL    H12   37   0.648  -0.098   0.107
    1UNL    H13   38   0.421  -0.223   0.088
    1UNL    H14   39   0.200  -0.303   0.110
    1UNL    H15   40  -0.046  -0.325   0.018
    1UNL    H16   41  -0.217  -0.178  -0.091
    1UNL    H17   42  -0.263  -0.205   0.070
    1UNL    H18   43  -0.364  -0.001   0.087
   0.00000   0.00000   0.00000   0.00000   0.00000   0.00000   0.00000   0.00000   0.00000
Generated with MDTraj, t= 9.0
 43
    1UNL     C1    1  -0.506  -0.128  -0.136
    1UNL     C2    2  -0.398  -0.013  -0.141
    1UNL     O1    3  -0.327  -0.015  -0.266
    1UNL     C3    4  -0.234   0.078  -0.278
    1UNL     C4    5  -0.174   0.142  -0.174
    1UNL     C5    6  -0.043   0.217  -0.192
    1UNL     O2    7  -0.014   0.301  -0.109
    1UNL     O3    8   0.025   0.183  -0.290
    1UNL     C6    9  -0.225   0.127  -0.028
    1UNL     C7   10  -0.114   0.127   0.080
    1UNL     C8   11  -0.024   0.008   0.070
    1UNL     C9   12   0.115   0.019   0.090
    1UNL     N1   13   0.197   0.134   0.075
    1UNL    C10   14   0.325   0.090   0.078
    1UNL    C11   15   0.441   0.160   0.055
    1UNL    C12   16   0.566   0.099   0.051
    1UNL    C13   17   0.574  -0.047   0.072
    1UNL    C14   18   0.458  -0.121   0.076
    1UNL    C15   19   0.337  -0.054   0.099
    1UNL    C16   20   0.195  -0.099   0.105
    1UNL    C17   21   0.137  -0.223   0.094
    1UNL    C18   22   0.005  -0.231   0.076
    1UNL     N2   23  -0.077  -0.117   0.050
    1UNL    C19   24  -0.214  -0.134  -0.008
    1UNL    C20   25  -0.299  -0.009  -0.017
    1UNL     H1   26  -0.479  -0.206  -0.061
    1UNL     H2   27  -0.518  -0.174  -0.234
    1UNL     H3   28  -0.603  -0.087  -0.118
    1UNL     H4   29  -0.448   0.078  -0.131
    1UNL     H5   30  -0.193   0.101  -0.381
    1UNL     H6   31  -0.293   0.210   0.007
    1UNL     H7   32  -0.152   0.131   0.178
    1UNL     H8   33  -0.060   0.221   0.071
    1UNL     H9   34   0.171   0.211   0.016
    1UNL    H10   35   0.432   0.271   0.053
    1UNL    H11   36   0.653   0.163   0.043
    1UNL    H12   37   0.666  -0.112   0.046
    1UNL    H13   38   0.453  -0.224   0.098
    1UNL    H14   39   0.194  -0.308   0.110
    1UNL    H15   40  -0.036  -0.322   0.063
    1UNL    H16   41  -0.198  -0.181  -0.102
    1UNL    H17   42  -0.265  -0.208   0.040
    1UNL    H18   43  -0.359  -0.007   0.082
   0.00000   0.00000   0.00000   0.00000   0.00000   0.00000   0.00000   0.00000   0.00000
Generated with MDTraj, t= 10.0
 43
    1UNL     C1    1  -0.507  -0.114  -0.128
    1UNL     C2    2  -0.389  -0.013  -0.146
    1UNL     O1    3  -0.301  -0.046  -0.251
    1UNL     C3    4  -0.196   0.035  -0.264
    1UNL     C4    5  -0.153   0.120  -0.164
    1UNL     C5    6  -0.043   0.218  -0.190
    1UNL     O2    7  -0.041   0.314  -0.117
    1UNL     O3    8   0.037   0.199  -0.284
    1UNL     C6    9  -0.221   0.130  -0.034
    1UNL     C7   10  -0.123   0.134   0.084
    1UNL     C8   11  -0.027   0.016   0.084
    1UNL     C9   12   0.115   0.024   0.092
    1UNL     N1   13   0.191   0.136   0.087
    1UNL    C10   14   0.323   0.089   0.082
    1UNL    C11   15   0.439   0.163   0.056
    1UNL    C12   16   0.559   0.092   0.052
    1UNL    C13   17   0.566  -0.050   0.055
    1UNL    C14   18   0.452  -0.125   0.074
    1UNL    C15   19   0.332  -0.053   0.086
    1UNL    C16   20   0.195  -0.097   0.088
    1UNL    C17   21   0.129  -0.224   0.070
    1UNL    C18   22  -0.007  -0.225   0.053
    1UNL     N2   23  -0.076  -0.108   0.058
    1UNL    C19   24  -0.217  -0.126  -0.002
    1UNL    C20   25  -0.307   0.004  -0.015
    1UNL     H1   26  -0.478  -0.205  -0.176
    1UNL     H2   27  -0.594  -0.065  -0.176
    1UNL     H3   28  -0.535  -0.129  -0.025
    1UNL     H4   29  -0.432   0.080  -0.162
    1UNL     H5   30  -0.145   0.027  -0.359
    1UNL     H6   31  -0.278   0.225  -0.034
    1UNL     H7   32  -0.188   0.138   0.177
    1UNL     H8   33  -0.070   0.224   0.088
    1UNL     H9   34   0.147   0.222   0.055
    1UNL    H10   35   0.432   0.266   0.074
    1UNL    H11   36   0.654   0.138   0.029
    1UNL    H12   37   0.653  -0.103   0.056
    1UNL    H13   38   0.430  -0.234   0.096
    1UNL    H14   39   0.195  -0.309   0.041
    1UNL    H15   40  -0.066  -0.320   0.026
    1UNL    H16   41  -0.212  -0.180  -0.094
    1UNL    H17   42  -0.260  -0.198   0.052
    1UNL    H18   43  -0.384   0.016   0.072
   0.00000   0.00000   0.00000   0.00000   0.00000   0.00000   0.00000   0.00000   0.00000
Generated with MDTraj, t= 11.0
 43
    1UNL     C1    1  -0.479  -0.141  -0.147
    1UNL     C2    2  -0.375  -0.031  -0.146
    1UNL     O1    3  -0.273  -0.066  -0.239
    1UNL     C3    4  -0.177   0.031  -0.245
    1UNL     C4    5  -0.147   0.130  -0.151
    1UNL     C5    6  -0.032   0.217  -0.190
    1UNL     O2    7   0.010   0.294  -0.107
    1UNL     O3    8   0.011   0.210  -0.305
    1UNL     C6    9  -0.217   0.140  -0.024
    1UNL     C7   10  -0.128   0.136   0.097
    1UNL     C8   11  -0.034   0.020   0.084
    1UNL     C9   12   0.103   0.028   0.072
    1UNL     N1   13   0.191   0.139   0.077
    1UNL    C10   14   0.318   0.090   0.079
    1UNL    C11   15   0.431   0.161   0.087
    1UNL    C12   16   0.552   0.091   0.065
    1UNL    C13   17   0.556  -0.051   0.048
    1UNL    C14   18   0.443  -0.126   0.060
    1UNL    C15   19   0.324  -0.050   0.066
    1UNL    C16   20   0.182  -0.093   0.055
    1UNL    C17   21   0.116  -0.217   0.042
    1UNL    C18   22  -0.020  -0.218   0.038
    1UNL     N2   23  -0.091  -0.101   0.056
    1UNL    C19   24  -0.239  -0.108   0.056
    1UNL    C20   25  -0.311   0.015  -0.010
    1UNL     H1   26  -0.431  -0.232  -0.144
    1UNL     H2   27  -0.544  -0.131  -0.236
    1UNL     H3   28  -0.549  -0.131  -0.061
    1UNL     H4   29  -0.413   0.058  -0.192
    1UNL     H5   30  -0.118   0.015  -0.328
    1UNL     H6   31  -0.268   0.239  -0.029
    1UNL     H7   32  -0.185   0.123   0.197
    1UNL     H8   33  -0.076   0.225   0.105
    1UNL     H9   34   0.158   0.230   0.044
    1UNL    H10   35   0.433   0.272   0.089
    1UNL    H11   36   0.649   0.141   0.066
    1UNL    H12   37   0.656  -0.105   0.045
    1UNL    H13   38   0.442  -0.227   0.043
    1UNL    H14   39   0.170  -0.306   0.017
    1UNL    H15   40  -0.068  -0.309   0.030
    1UNL    H16   41  -0.268  -0.197   0.010
    1UNL    H17   42  -0.277  -0.128   0.150
    1UNL    H18   43  -0.401   0.041   0.062
   0.00000   0.00000   0.00000   0.00000   0.00000   0.00000   0.00000   0.00000   0.00000
Generated with MDTraj, t= 12.0
 43
    1UNL     C1    1  -0.482  -0.139  -0.145
    1UNL     C2    2  -0.370  -0.037  -0.149
    1UNL     O1    3  -0.259  -0.078  -0.234
    1UNL     C3    4  -0.158   0.017  -0.249
    1UNL     C4    5  -0.133   0.119  -0.160
    1UNL     C5    6  -0.027   0.218  -0.187
    1UNL     O2    7   0.003   0.287  -0.090
    1UNL     O3    8   0.019   0.232  -0.302
    1UNL     C6    9  -0.217   0.132  -0.033
    1UNL     C7   10  -0.127   0.142   0.097
    1UNL     C8   11  -0.040   0.024   0.097
    1UNL     C9   12   0.101   0.031   0.077
    1UNL     N1   13   0.189   0.139   0.093
    1UNL    C10   14   0.316   0.095   0.063
    1UNL    C11   15   0.440   0.156   0.088
    1UNL    C12   16   0.553   0.086   0.061
    1UNL    C13   17   0.550  -0.054   0.052
    1UNL    C14   18   0.430  -0.123   0.038
    1UNL    C15   19   0.312  -0.045   0.036
    1UNL    C16   20   0.176  -0.085   0.043
    1UNL    C17   21   0.115  -0.211   0.037
    1UNL    C18   22  -0.024  -0.212   0.046
    1UNL     N2   23  -0.098  -0.097   0.070
    1UNL    C19   24  -0.246  -0.102   0.067
    1UNL    C20   25  -0.311   0.009  -0.015
    1UNL     H1   26  -0.512  -0.151  -0.045
    1UNL     H2   27  -0.443  -0.234  -0.179
    1UNL     H3   28  -0.573  -0.126  -0.207
    1UNL     H4   29  -0.405   0.052  -0.206
    1UNL     H5   30  -0.095   0.008  -0.338
    1UNL     H6   31  -0.281   0.222  -0.037
    1UNL     H7   32  -0.196   0.125   0.186
    1UNL     H8   33  -0.072   0.233   0.122
    1UNL     H9   34   0.161   0.230   0.065
    1UNL    H10   35   0.459   0.260   0.089
    1UNL    H11   36   0.646   0.136   0.088
    1UNL    H12   37   0.636  -0.113   0.044
    1UNL    H13   38   0.419  -0.234   0.015
    1UNL    H14   39   0.179  -0.296   0.028
    1UNL    H15   40  -0.074  -0.311   0.038
    1UNL    H16   41  -0.279  -0.192   0.027
    1UNL    H17   42  -0.287  -0.105   0.164
    1UNL    H18   43  -0.410   0.033   0.049
   0.00000   0.00000   0.00000   0.00000   0.00000   0.00000   0.00000   0.00000   0.00000
Generated with MDTraj, t= 13.0
 43
    1UNL     C1    1  -0.481  -0.134  -0.161
    1UNL     C2    2  -0.372  -0.028  -0.155
    1UNL     O1    3  -0.253  -0.071  -0.229
    1UNL     C3    4  -0.162   0.028  -0.243
    1UNL     C4    5  -0.142   0.133  -0.156
    1UNL     C5    6  -0.028   0.225  -0.179
    1UNL     O2    7  -0.007   0.322  -0.099
    1UNL     O3    8   0.047   0.197  -0.279
    1UNL     C6    9  -0.222   0.135  -0.021
    1UNL     C7   10  -0.129   0.133   0.104
    1UNL     C8   11  -0.040   0.017   0.083
    1UNL     C9   12   0.100   0.027   0.099
    1UNL     N1   13   0.181   0.136   0.093
    1UNL    C10   14   0.311   0.091   0.067
    1UNL    C11   15   0.434   0.153   0.052
    1UNL    C12   16   0.553   0.090   0.026
    1UNL    C13   17   0.546  -0.044   0.026
    1UNL    C14   18   0.435  -0.119   0.052
    1UNL    C15   19   0.312  -0.050   0.064
    1UNL    C16   20   0.175  -0.093   0.089
    1UNL    C17   21   0.117  -0.218   0.062
    1UNL    C18   22  -0.017  -0.218   0.042
    1UNL     N2   23  -0.095  -0.103   0.049
    1UNL    C19   24  -0.241  -0.117   0.041
    1UNL    C20   25  -0.318   0.009  -0.012
    1UNL     H1   26  -0.577  -0.097  -0.201
    1UNL     H2   27  -0.496  -0.182  -0.068
    1UNL     H3   28  -0.451  -0.217  -0.223
    1UNL     H4   29  -0.409   0.070  -0.202
    1UNL     H5   30  -0.090   0.022  -0.330
    1UNL     H6   31  -0.280   0.229  -0.016
    1UNL     H7   32  -0.182   0.126   0.202
    1UNL     H8   33  -0.069   0.234   0.114
    1UNL     H9   34   0.138   0.216   0.037
    1UNL    H10   35   0.430   0.261   0.061
    1UNL    H11   36   0.646   0.137  -0.002
    1UNL    H12   37   0.646  -0.089   0.020
    1UNL    H13   38   0.437  -0.223   0.042
    1UNL    H14   39   0.171  -0.317   0.061
    1UNL    H15   40  -0.077  -0.305   0.021
    1UNL    H16   41  -0.268  -0.201  -0.012
    1UNL    H17   42  -0.275  -0.130   0.141
    1UNL    H18   43  -0.405   0.046   0.063
   0.00000   0.00000   0.00000   0.00000   0.00000   0.00000   0.00000   0.00000   0.00000
Generated with MDTraj, t= 14.0
 43
    1UNL     C1    1  -0.486  -0.120  -0.168
    1UNL     C2    2  -0.377  -0.015  -0.160
    1UNL     O1    3  -0.273  -0.037  -0.263
    1UNL     C3    4  -0.166   0.047  -0.261
    1UNL     C4    5  -0.125   0.117  -0.154
    1UNL     C5    6  -0.009   0.208  -0.161
    1UNL     O2    7   0.002   0.299  -0.070
    1UNL     O3    8   0.077   0.192  -0.253
    1UNL     C6    9  -0.212   0.118  -0.029
    1UNL     C7   10  -0.137   0.122   0.107
    1UNL     C8   11  -0.047   0.013   0.103
    1UNL     C9   12   0.092   0.022   0.101
    1UNL     N1   13   0.177   0.131   0.072
    1UNL    C10   14   0.310   0.093   0.048
    1UNL    C11   15   0.423   0.168   0.006
    1UNL    C12   16   0.540   0.103   0.002
    1UNL    C13   17   0.541  -0.032   0.018
    1UNL    C14   18   0.434  -0.106   0.052
    1UNL    C15   19   0.312  -0.048   0.072
    1UNL    C16   20   0.177  -0.093   0.096
    1UNL    C17   21   0.118  -0.219   0.093
    1UNL    C18   22  -0.017  -0.226   0.083
    1UNL     N2   23  -0.096  -0.114   0.082
    1UNL    C19   24  -0.242  -0.134   0.025
    1UNL    C20   25  -0.315   0.003  -0.023
    1UNL     H1   26  -0.475  -0.149  -0.275
    1UNL     H2   27  -0.584  -0.088  -0.141
    1UNL     H3   28  -0.463  -0.200  -0.105
    1UNL     H4   29  -0.435   0.086  -0.178
    1UNL     H5   30  -0.108   0.044  -0.350
    1UNL     H6   31  -0.271   0.210  -0.039
    1UNL     H7   32  -0.200   0.114   0.199
    1UNL     H8   33  -0.070   0.221   0.113
    1UNL     H9   34   0.143   0.211   0.015
    1UNL    H10   35   0.418   0.275  -0.003
    1UNL    H11   36   0.628   0.158  -0.036
    1UNL    H12   37   0.633  -0.086  -0.005
    1UNL    H13   38   0.447  -0.209   0.086
    1UNL    H14   39   0.175  -0.304   0.094
    1UNL    H15   40  -0.065  -0.319   0.073
    1UNL    H16   41  -0.227  -0.185  -0.064
    1UNL    H17   42  -0.301  -0.190   0.091
    1UNL    H18   43  -0.401   0.046   0.048
   0.00000   0.00000   0.00000   0.00000   0.00000   0.00000   0.00000   0.00000   0.00000
Generated with MDTraj, t= 15.0
 43
    1UNL     C1    1  -0.485  -0.122  -0.173
    1UNL     C2    2  -0.370  -0.020  -0.166
    1UNL     O1    3  -0.267  -0.043  -0.264
    1UNL     C3    4  -0.172   0.056  -0.258
    1UNL     C4    5  -0.140   0.135  -0.150
    1UNL     C5    6  -0.017   0.212  -0.161
    1UNL     O2    7  -0.011   0.311  -0.081
    1UNL     O3    8   0.075   0.179  -0.243
    1UNL     C6    9  -0.218   0.123  -0.024
    1UNL     C7   10  -0.129   0.130   0.099
    1UNL     C8   11  -0.042   0.010   0.102
    1UNL     C9   12   0.092   0.025   0.104
    1UNL     N1   13   0.174   0.135   0.083
    1UNL    C10   14   0.311   0.097   0.074
    1UNL    C11   15   0.423   0.162   0.014
    1UNL    C12   16   0.535   0.090  -0.020
    1UNL    C13   17   0.543  -0.044   0.004
    1UNL    C14   18   0.433  -0.113   0.042
    1UNL    C15   19   0.318  -0.043   0.091
    1UNL    C16   20   0.179  -0.086   0.105
    1UNL    C17   21   0.117  -0.215   0.103
    1UNL    C18   22  -0.018  -0.226   0.089
    1UNL     N2   23  -0.101  -0.114   0.087
    1UNL    C19   24  -0.225  -0.131   0.002
    1UNL    C20   25  -0.305  -0.003  -0.026
    1UNL     H1   26  -0.540  -0.119  -0.272
    1UNL     H2   27  -0.546  -0.119  -0.087
    1UNL     H3   28  -0.437  -0.215  -0.163
    1UNL     H4   29  -0.408   0.087  -0.200
    1UNL     H5   30  -0.105   0.050  -0.337
    1UNL     H6   31  -0.292   0.203  -0.025
    1UNL     H7   32  -0.200   0.122   0.188
    1UNL     H8   33  -0.069   0.227   0.107
    1UNL     H9   34   0.137   0.203   0.016
    1UNL    H10   35   0.418   0.268   0.000
    1UNL    H11   36   0.612   0.140  -0.070
    1UNL    H12   37   0.624  -0.096  -0.043
    1UNL    H13   38   0.457  -0.217   0.069
    1UNL    H14   39   0.187  -0.300   0.091
    1UNL    H15   40  -0.062  -0.327   0.064
    1UNL    H16   41  -0.178  -0.159  -0.088
    1UNL    H17   42  -0.287  -0.207   0.041
    1UNL    H18   43  -0.386   0.018   0.059
   0.00000   0.00000   0.00000   0.00000   0.00000   0.00000   0.00000   0.00000   0.00000
Generated with MDTraj, t= 16.0
 43
    1UNL     C1    1  -0.463  -0.138  -0.162
    1UNL     C2    2  -0.367  -0.022  -0.164
    1UNL     O1    3  -0.272  -0.043  -0.258
    1UNL     C3    4  -0.171   0.046  -0.261
    1UNL     C4    5  -0.134   0.127  -0.157
    1UNL     C5    6  -0.017   0.218  -0.167
    1UNL     O2    7  -0.002   0.305  -0.075
    1UNL     O3    8   0.057   0.198  -0.266
    1UNL     C6    9  -0.219   0.128  -0.030
    1UNL     C7   10  -0.129   0.128   0.098
    1UNL     C8   11  -0.042   0.008   0.102
    1UNL     C9   12   0.098   0.023   0.106
    1UNL     N1   13   0.180   0.138   0.086
    1UNL    C10   14   0.316   0.093   0.075
    1UNL    C11   15   0.427   0.165   0.022
    1UNL    C12   16   0.538   0.093  -0.000
    1UNL    C13   17   0.537  -0.047   0.007
    1UNL    C14   18   0.428  -0.120   0.051
    1UNL    C15   19   0.317  -0.047   0.092
    1UNL    C16   20   0.181  -0.091   0.100
    1UNL    C17   21   0.110  -0.217   0.089
    1UNL    C18   22  -0.021  -0.221   0.060
    1UNL     N2   23  -0.101  -0.108   0.069
    1UNL    C19   24  -0.240  -0.122   0.032
    1UNL    C20   25  -0.309   0.005  -0.021
    1UNL     H1   26  -0.525  -0.161  -0.250
    1UNL     H2   27  -0.526  -0.125  -0.077
    1UNL     H3   28  -0.411  -0.228  -0.137
    1UNL     H4   29  -0.420   0.072  -0.212
    1UNL     H5   30  -0.102   0.040  -0.349
    1UNL     H6   31  -0.282   0.217  -0.030
    1UNL     H7   32  -0.184   0.118   0.202
    1UNL     H8   33  -0.068   0.217   0.094
    1UNL     H9   34   0.145   0.210   0.026
    1UNL    H10   35   0.426   0.274   0.012
    1UNL    H11   36   0.626   0.139  -0.053
    1UNL    H12   37   0.639  -0.087  -0.010
    1UNL    H13   38   0.429  -0.222   0.035
    1UNL    H14   39   0.170  -0.307   0.085
    1UNL    H15   40  -0.068  -0.307   0.028
    1UNL    H16   41  -0.239  -0.190  -0.048
    1UNL    H17   42  -0.283  -0.166   0.116
    1UNL    H18   43  -0.398   0.025   0.051
   0.00000   0.00000   0.00000   0.00000   0.00000   0.00000   0.00000   0.00000   0.00000
Generated with MDTraj, t= 17.0
 43
    1UNL     C1    1  -0.483  -0.120  -0.156
    1UNL     C2    2  -0.361  -0.025  -0.154
    1UNL     O1    3  -0.257  -0.064  -0.250
    1UNL     C3    4  -0.156   0.025  -0.247
    1UNL     C4    5  -0.127   0.119  -0.151
    1UNL     C5    6  -0.021   0.220  -0.178
    1UNL     O2    7  -0.000   0.297  -0.083
    1UNL     O3    8   0.022   0.225  -0.291
    1UNL     C6    9  -0.213   0.130  -0.027
    1UNL     C7   10  -0.122   0.132   0.103
    1UNL     C8   11  -0.040   0.007   0.093
    1UNL     C9   12   0.099   0.019   0.088
    1UNL     N1   13   0.179   0.136   0.079
    1UNL    C10   14   0.309   0.098   0.048
    1UNL    C11   15   0.433   0.162   0.048
    1UNL    C12   16   0.548   0.094   0.043
    1UNL    C13   17   0.550  -0.047   0.036
    1UNL    C14   18   0.432  -0.116   0.040
    1UNL    C15   19   0.309  -0.046   0.058
    1UNL    C16   20   0.177  -0.090   0.079
    1UNL    C17   21   0.113  -0.218   0.073
    1UNL    C18   22  -0.024  -0.227   0.066
    1UNL     N2   23  -0.100  -0.112   0.068
    1UNL    C19   24  -0.246  -0.116   0.046
    1UNL    C20   25  -0.310   0.014  -0.012
    1UNL     H1   26  -0.485  -0.157  -0.257
    1UNL     H2   27  -0.584  -0.085  -0.140
    1UNL     H3   28  -0.474  -0.214  -0.097
    1UNL     H4   29  -0.400   0.067  -0.206
    1UNL     H5   30  -0.098   0.029  -0.344
    1UNL     H6   31  -0.265   0.225  -0.028
    1UNL     H7   32  -0.196   0.125   0.195
    1UNL     H8   33  -0.054   0.211   0.119
    1UNL     H9   34   0.145   0.223   0.037
    1UNL    H10   35   0.429   0.267   0.039
    1UNL    H11   36   0.635   0.150   0.057
    1UNL    H12   37   0.640  -0.101   0.046
    1UNL    H13   38   0.437  -0.226   0.010
    1UNL    H14   39   0.168  -0.304   0.054
    1UNL    H15   40  -0.077  -0.325   0.041
    1UNL    H16   41  -0.268  -0.206  -0.007
    1UNL    H17   42  -0.284  -0.127   0.140
    1UNL    H18   43  -0.394   0.042   0.059
   0.00000   0.00000   0.00000   0.00000   0.00000   0.00000   0.00000   0.00000   0.00000
Generated with MDTraj, t= 18.0
 43
    1UNL     C1    1  -0.484  -0.123  -0.157
    1UNL     C2    2  -0.368  -0.017  -0.150
    1UNL     O1    3  -0.257  -0.069  -0.224
    1UNL     C3    4  -0.166   0.026  -0.242
    1UNL     C4    5  -0.151   0.131  -0.154
    1UNL     C5    6  -0.048   0.229  -0.189
    1UNL     O2    7  -0.031   0.325  -0.113
    1UNL     O3    8   0.013   0.209  -0.292
    1UNL     C6    9  -0.220   0.128  -0.024
    1UNL     C7   10  -0.116   0.133   0.093
    1UNL     C8   11  -0.028   0.013   0.082
    1UNL     C9   12   0.106   0.021   0.079
    1UNL     N1   13   0.192   0.131   0.098
    1UNL    C10   14   0.322   0.089   0.064
    1UNL    C11   15   0.443   0.162   0.071
    1UNL    C12   16   0.559   0.085   0.051
    1UNL    C13   17   0.558  -0.055   0.056
    1UNL    C14   18   0.439  -0.126   0.056
    1UNL    C15   19   0.320  -0.053   0.055
    1UNL    C16   20   0.183  -0.096   0.056
    1UNL    C17   21   0.122  -0.219   0.050
    1UNL    C18   22  -0.017  -0.221   0.051
    1UNL     N2   23  -0.093  -0.105   0.050
    1UNL    C19   24  -0.244  -0.116   0.053
    1UNL    C20   25  -0.315   0.010  -0.011
    1UNL     H1   26  -0.519  -0.121  -0.256
    1UNL     H2   27  -0.576  -0.101  -0.103
    1UNL     H3   28  -0.440  -0.227  -0.145
    1UNL     H4   29  -0.409   0.071  -0.197
    1UNL     H5   30  -0.111   0.021  -0.332
    1UNL     H6   31  -0.269   0.224  -0.026
    1UNL     H7   32  -0.156   0.134   0.198
    1UNL     H8   33  -0.058   0.223   0.082
    1UNL     H9   34   0.165   0.231   0.082
    1UNL    H10   35   0.442   0.271   0.057
    1UNL    H11   36   0.656   0.138   0.066
    1UNL    H12   37   0.655  -0.107   0.069
    1UNL    H13   38   0.432  -0.228   0.057
    1UNL    H14   39   0.164  -0.323   0.043
    1UNL    H15   40  -0.078  -0.304   0.044
    1UNL    H16   41  -0.272  -0.202  -0.004
    1UNL    H17   42  -0.273  -0.142   0.149
    1UNL    H18   43  -0.402   0.033   0.053
   0.00000   0.00000   0.00000   0.00000   0.00000   0.00000   0.00000   0.00000   0.00000
Generated with MDTraj, t= 19.0
 43
    1UNL     C1    1  -0.480  -0.155  -0.123
    1UNL     C2    2  -0.381  -0.025  -0.138
    1UNL     O1    3  -0.294  -0.058  -0.243
    1UNL     C3    4  -0.196   0.030  -0.260
    1UNL     C4    5  -0.160   0.127  -0.167
    1UNL     C5    6  -0.053   0.230  -0.198
    1UNL     O2    7  -0.052   0.319  -0.113
    1UNL     O3    8   0.030   0.217  -0.286
    1UNL     C6    9  -0.219   0.136  -0.034
    1UNL     C7   10  -0.110   0.146   0.076
    1UNL     C8   11  -0.029   0.022   0.074
    1UNL     C9   12   0.112   0.030   0.079
    1UNL     N1   13   0.197   0.141   0.099
    1UNL    C10   14   0.331   0.085   0.091
    1UNL    C11   15   0.455   0.147   0.095
    1UNL    C12   16   0.571   0.071   0.069
    1UNL    C13   17   0.561  -0.067   0.052
    1UNL    C14   18   0.435  -0.130   0.063
    1UNL    C15   19   0.320  -0.050   0.068
    1UNL    C16   20   0.185  -0.087   0.063
    1UNL    C17   21   0.127  -0.213   0.037
    1UNL    C18   22  -0.010  -0.216   0.029
    1UNL     N2   23  -0.080  -0.101   0.051
    1UNL    C19   24  -0.229  -0.115   0.037
    1UNL    C20   25  -0.307   0.015  -0.009
    1UNL     H1   26  -0.524  -0.202  -0.207
    1UNL     H2   27  -0.564  -0.116  -0.064
    1UNL     H3   28  -0.425  -0.233  -0.066
    1UNL     H4   29  -0.434   0.059  -0.171
    1UNL     H5   30  -0.145   0.018  -0.351
    1UNL     H6   31  -0.279   0.226  -0.038
    1UNL     H7   32  -0.163   0.155   0.165
    1UNL     H8   33  -0.042   0.233   0.072
    1UNL     H9   34   0.170   0.236   0.071
    1UNL    H10   35   0.453   0.252   0.118
    1UNL    H11   36   0.656   0.122   0.030
    1UNL    H12   37   0.643  -0.131   0.057
    1UNL    H13   38   0.430  -0.239   0.074
    1UNL    H14   39   0.180  -0.302   0.027
    1UNL    H15   40  -0.055  -0.320   0.020
    1UNL    H16   41  -0.243  -0.194  -0.033
    1UNL    H17   42  -0.269  -0.153   0.125
    1UNL    H18   43  -0.378   0.037   0.072
   0.00000   0.00000   0.00000   0.00000   0.00000   0.00000   0.00000   0.00000   0.00000
Generated with MDTraj, t= 20.0
 43
    1UNL     C1    1  -0.507  -0.121  -0.139
    1UNL     C2    2  -0.396  -0.012  -0.129
    1UNL     O1    3  -0.314  -0.041  -0.244
    1UNL     C3    4  -0.211   0.040  -0.256
    1UNL     C4    5  -0.169   0.130  -0.165
    1UNL     C5    6  -0.061   0.221  -0.212
    1UNL     O2    7  -0.024   0.308  -0.129
    1UNL     O3    8  -0.007   0.197  -0.320
    1UNL     C6    9  -0.219   0.131  -0.023
    1UNL     C7   10  -0.105   0.133   0.088
    1UNL     C8   11  -0.021   0.008   0.078
    1UNL     C9   12   0.120   0.019   0.082
    1UNL     N1   13   0.204   0.132   0.081
    1UNL    C10   14   0.334   0.089   0.091
    1UNL    C11   15   0.452   0.157   0.115
    1UNL    C12   16   0.573   0.086   0.103
    1UNL    C13   17   0.569  -0.054   0.066
    1UNL    C14   18   0.449  -0.121   0.055
    1UNL    C15   19   0.336  -0.052   0.077
    1UNL    C16   20   0.200  -0.096   0.066
    1UNL    C17   21   0.141  -0.219   0.037
    1UNL    C18   22   0.001  -0.221   0.031
    1UNL     N2   23  -0.080  -0.107   0.056
    1UNL    C19   24  -0.227  -0.121   0.023
    1UNL    C20   25  -0.313   0.005  -0.002
    1UNL     H1   26  -0.585  -0.108  -0.212
    1UNL     H2   27  -0.562  -0.132  -0.044
    1UNL     H3   28  -0.457  -0.215  -0.160
    1UNL     H4   29  -0.431   0.084  -0.144
    1UNL     H5   30  -0.159   0.050  -0.356
    1UNL     H6   31  -0.277   0.221  -0.016
    1UNL     H7   32  -0.139   0.140   0.183
    1UNL     H8   33  -0.051   0.230   0.074
    1UNL     H9   34   0.190   0.226   0.047
    1UNL    H10   35   0.452   0.264   0.131
    1UNL    H11   36   0.663   0.147   0.090
    1UNL    H12   37   0.665  -0.099   0.029
    1UNL    H13   38   0.458  -0.230   0.071
    1UNL    H14   39   0.202  -0.311   0.034
    1UNL    H15   40  -0.048  -0.311   0.025
    1UNL    H16   41  -0.228  -0.180  -0.064
    1UNL    H17   42  -0.271  -0.181   0.101
    1UNL    H18   43  -0.386   0.017   0.079
   0.00000   0.00000   0.00000   0.00000   0.00000   0.00000   0.00000   0.00000   0.00000
Generated with MDTraj, t= 21.0
 43
    1UNL     C1    1  -0.521  -0.091  -0.082
    1UNL     C2    2  -0.409   0.002  -0.119
    1UNL     O1    3  -0.340  -0.040  -0.240
    1UNL     C3    4  -0.231   0.038  -0.262
    1UNL     C4    5  -0.164   0.126  -0.181
    1UNL     C5    6  -0.051   0.209  -0.213
    1UNL     O2    7   0.011   0.255  -0.116
    1UNL     O3    8  -0.019   0.226  -0.330
    1UNL     C6    9  -0.211   0.131  -0.039
    1UNL     C7   10  -0.104   0.122   0.076
    1UNL     C8   11  -0.021   0.006   0.062
    1UNL     C9   12   0.118   0.018   0.078
    1UNL     N1   13   0.195   0.132   0.092
    1UNL    C10   14   0.328   0.088   0.089
    1UNL    C11   15   0.445   0.165   0.098
    1UNL    C12   16   0.566   0.104   0.105
    1UNL    C13   17   0.578  -0.037   0.098
    1UNL    C14   18   0.461  -0.117   0.078
    1UNL    C15   19   0.334  -0.050   0.087
    1UNL    C16   20   0.201  -0.103   0.077
    1UNL    C17   21   0.147  -0.226   0.035
    1UNL    C18   22   0.010  -0.231   0.020
    1UNL     N2   23  -0.072  -0.117   0.028
    1UNL    C19   24  -0.214  -0.124  -0.014
    1UNL    C20   25  -0.302   0.005  -0.009
    1UNL     H1   26  -0.582  -0.104  -0.175
    1UNL     H2   27  -0.593  -0.059  -0.005
    1UNL     H3   28  -0.479  -0.186  -0.064
    1UNL     H4   29  -0.433   0.102  -0.128
    1UNL     H5   30  -0.204   0.053  -0.370
    1UNL     H6   31  -0.273   0.219  -0.022
    1UNL     H7   32  -0.156   0.136   0.167
    1UNL     H8   33  -0.040   0.210   0.072
    1UNL     H9   34   0.162   0.225   0.086
    1UNL    H10   35   0.430   0.271   0.096
    1UNL    H11   36   0.655   0.167   0.109
    1UNL    H12   37   0.674  -0.076   0.094
    1UNL    H13   38   0.463  -0.221   0.085
    1UNL    H14   39   0.209  -0.314   0.019
    1UNL    H15   40  -0.029  -0.330  -0.018
    1UNL    H16   41  -0.214  -0.166  -0.110
    1UNL    H17   42  -0.256  -0.201   0.056
    1UNL    H18   43  -0.352   0.024   0.087
   0.00000   0.00000   0.00000   0.00000   0.00000   0.00000   0.00000   0.00000   0.00000
Generated with MDTraj, t= 22.0
 43
    1UNL     C1    1  -0.510  -0.125  -0.102
    1UNL     C2    2  -0.418  -0.003  -0.110
    1UNL     O1    3  -0.370   0.011  -0.244
    1UNL     C3    4  -0.257   0.079  -0.265
    1UNL     C4    5  -0.176   0.137  -0.172
    1UNL     C5    6  -0.057   0.200  -0.222
    1UNL     O2    7   0.029   0.239  -0.140
    1UNL     O3    8  -0.035   0.192  -0.344
    1UNL     C6    9  -0.222   0.129  -0.026
    1UNL     C7   10  -0.108   0.117   0.079
    1UNL     C8   11  -0.010   0.007   0.057
    1UNL     C9   12   0.126   0.022   0.071
    1UNL     N1   13   0.203   0.135   0.107
    1UNL    C10   14   0.334   0.098   0.102
    1UNL    C11   15   0.456   0.165   0.098
    1UNL    C12   16   0.576   0.096   0.109
    1UNL    C13   17   0.575  -0.046   0.108
    1UNL    C14   18   0.459  -0.117   0.095
    1UNL    C15   19   0.342  -0.047   0.089
    1UNL    C16   20   0.209  -0.092   0.069
    1UNL    C17   21   0.154  -0.219   0.044
    1UNL    C18   22   0.015  -0.228   0.022
    1UNL     N2   23  -0.062  -0.116   0.020
    1UNL    C19   24  -0.209  -0.128  -0.015
    1UNL    C20   25  -0.303  -0.006   0.000
    1UNL     H1   26  -0.589  -0.107  -0.181
    1UNL     H2   27  -0.563  -0.120  -0.007
    1UNL     H3   28  -0.454  -0.212  -0.123
    1UNL     H4   29  -0.469   0.087  -0.094
    1UNL     H5   30  -0.238   0.080  -0.367
    1UNL     H6   31  -0.291   0.214  -0.016
    1UNL     H7   32  -0.149   0.101   0.181
    1UNL     H8   33  -0.070   0.215   0.085
    1UNL     H9   34   0.166   0.225   0.082
    1UNL    H10   35   0.445   0.272   0.090
    1UNL    H11   36   0.664   0.152   0.118
    1UNL    H12   37   0.665  -0.099   0.148
    1UNL    H13   38   0.461  -0.225   0.063
    1UNL    H14   39   0.219  -0.304   0.042
    1UNL    H15   40  -0.036  -0.314  -0.012
    1UNL    H16   41  -0.220  -0.152  -0.117
    1UNL    H17   42  -0.258  -0.210   0.044
    1UNL    H18   43  -0.351  -0.001   0.099
   0.00000   0.00000   0.00000   0.00000   0.00000   0.00000   0.00000   0.00000   0.00000
Generated with MDTraj, t= 23.0
 43
    1UNL     C1    1  -0.484  -0.151  -0.101
    1UNL     C2    2  -0.418  -0.010  -0.102
    1UNL     O1    3  -0.389   0.019  -0.239
    1UNL     C3    4  -0.269   0.080  -0.255
    1UNL     C4    5  -0.184   0.143  -0.170
    1UNL     C5    6  -0.063   0.203  -0.231
    1UNL     O2    7   0.009   0.272  -0.155
    1UNL     O3    8  -0.028   0.170  -0.348
    1UNL     C6    9  -0.219   0.137  -0.022
    1UNL     C7   10  -0.102   0.129   0.073
    1UNL     C8   11  -0.015   0.015   0.051
    1UNL     C9   12   0.124   0.025   0.071
    1UNL     N1   13   0.209   0.133   0.096
    1UNL    C10   14   0.338   0.090   0.109
    1UNL    C11   15   0.459   0.160   0.128
    1UNL    C12   16   0.574   0.087   0.123
    1UNL    C13   17   0.580  -0.054   0.109
    1UNL    C14   18   0.460  -0.123   0.082
    1UNL    C15   19   0.341  -0.051   0.092
    1UNL    C16   20   0.206  -0.091   0.067
    1UNL    C17   21   0.148  -0.218   0.055
    1UNL    C18   22   0.019  -0.224   0.027
    1UNL     N2   23  -0.063  -0.109   0.016
    1UNL    C19   24  -0.205  -0.124  -0.033
    1UNL    C20   25  -0.289  -0.001  -0.007
    1UNL     H1   26  -0.595  -0.143  -0.112
    1UNL     H2   27  -0.468  -0.188  -0.001
    1UNL     H3   28  -0.444  -0.214  -0.180
    1UNL     H4   29  -0.484   0.069  -0.075
    1UNL     H5   30  -0.247   0.070  -0.359
    1UNL     H6   31  -0.293   0.216  -0.002
    1UNL     H7   32  -0.150   0.123   0.177
    1UNL     H8   33  -0.042   0.214   0.072
    1UNL     H9   34   0.191   0.223   0.061
    1UNL    H10   35   0.462   0.268   0.126
    1UNL    H11   36   0.670   0.133   0.162
    1UNL    H12   37   0.670  -0.111   0.107
    1UNL    H13   38   0.460  -0.219   0.041
    1UNL    H14   39   0.206  -0.311   0.051
    1UNL    H15   40  -0.032  -0.322   0.018
    1UNL    H16   41  -0.216  -0.141  -0.140
    1UNL    H17   42  -0.258  -0.208   0.019
    1UNL    H18   43  -0.322  -0.024   0.096
   0.00000   0.00000   0.00000   0.00000   0.00000   0.00000   0.00000   0.00000   0.00000
Generated with MDTraj, t= 24.0
 43
    1UNL     C1    1  -0.507  -0.129  -0.065
    1UNL     C2    2  -0.424  -0.010  -0.101
    1UNL     O1    3  -0.382  -0.009  -0.243
    1UNL     C3    4  -0.275   0.067  -0.273
    1UNL     C4    5  -0.191   0.139  -0.191
    1UNL     C5    6  -0.074   0.214  -0.235
    1UNL     O2    7  -0.024   0.291  -0.152
    1UNL     O3    8  -0.030   0.191  -0.349
    1UNL     C6    9  -0.220   0.127  -0.043
    1UNL     C7   10  -0.100   0.133   0.054
    1UNL     C8   11  -0.009   0.012   0.056
    1UNL     C9   12   0.130   0.016   0.087
    1UNL     N1   13   0.213   0.129   0.107
    1UNL    C10   14   0.346   0.081   0.112
    1UNL    C11   15   0.467   0.154   0.127
    1UNL    C12   16   0.586   0.086   0.136
    1UNL    C13   17   0.589  -0.052   0.119
    1UNL    C14   18   0.473  -0.127   0.103
    1UNL    C15   19   0.350  -0.056   0.098
    1UNL    C16   20   0.213  -0.099   0.071
    1UNL    C17   21   0.153  -0.222   0.030
    1UNL    C18   22   0.021  -0.220  -0.003
    1UNL     N2   23  -0.057  -0.109   0.023
    1UNL    C19   24  -0.205  -0.117  -0.019
    1UNL    C20   25  -0.301   0.002  -0.014
    1UNL     H1   26  -0.568  -0.168  -0.145
    1UNL     H2   27  -0.577  -0.096   0.009
    1UNL     H3   28  -0.455  -0.219  -0.025
    1UNL     H4   29  -0.476   0.083  -0.086
    1UNL     H5   30  -0.252   0.085  -0.382
    1UNL     H6   31  -0.273   0.222  -0.022
    1UNL     H7   32  -0.140   0.141   0.162
    1UNL     H8   33  -0.045   0.223   0.038
    1UNL     H9   34   0.191   0.212   0.059
    1UNL    H10   35   0.462   0.261   0.147
    1UNL    H11   36   0.678   0.130   0.146
    1UNL    H12   37   0.683  -0.103   0.109
    1UNL    H13   38   0.480  -0.235   0.086
    1UNL    H14   39   0.220  -0.300   0.009
    1UNL    H15   40  -0.037  -0.305  -0.035
    1UNL    H16   41  -0.194  -0.134  -0.132
    1UNL    H17   42  -0.251  -0.208   0.022
    1UNL    H18   43  -0.333  -0.010   0.093
   0.00000   0.00000   0.00000   0.00000   0.00000   0.00000   0.00000   0.00000   0.00000
Generated with MDTraj, t= 25.0
 43
    1UNL     C1    1  -0.529  -0.087  -0.067
    1UNL     C2    2  -0.409  -0.005  -0.104
    1UNL     O1    3  -0.340  -0.057  -0.228
    1UNL     C3    4  -0.243   0.039  -0.262
    1UNL     C4    5  -0.181   0.134  -0.183
    1UNL     C5    6  -0.091   0.235  -0.244
    1UNL     O2    7  -0.032   0.311  -0.168
    1UNL     O3    8  -0.078   0.221  -0.367
    1UNL     C6    9  -0.213   0.128  -0.033
    1UNL     C7   10  -0.086   0.136   0.053
    1UNL     C8   11  -0.002   0.012   0.036
    1UNL     C9   12   0.130   0.019   0.066
    1UNL     N1   13   0.211   0.130   0.092
    1UNL    C10   14   0.339   0.083   0.119
    1UNL    C11   15   0.458   0.144   0.148
    1UNL    C12   16   0.577   0.077   0.157
    1UNL    C13   17   0.575  -0.059   0.127
    1UNL    C14   18   0.466  -0.129   0.097
    1UNL    C15   19   0.349  -0.059   0.085
    1UNL    C16   20   0.214  -0.097   0.060
    1UNL    C17   21   0.160  -0.221   0.021
    1UNL    C18   22   0.024  -0.226   0.006
    1UNL     N2   23  -0.056  -0.111   0.016
    1UNL    C19   24  -0.203  -0.130  -0.005
    1UNL    C20   25  -0.294  -0.001   0.004
    1UNL     H1   26  -0.621  -0.052  -0.104
    1UNL     H2   27  -0.537  -0.085   0.042
    1UNL     H3   28  -0.524  -0.193  -0.102
    1UNL     H4   29  -0.436   0.101  -0.108
    1UNL     H5   30  -0.206   0.047  -0.366
    1UNL     H6   31  -0.263   0.224  -0.004
    1UNL     H7   32  -0.119   0.146   0.160
    1UNL     H8   33  -0.012   0.220   0.026
    1UNL     H9   34   0.184   0.221   0.061
    1UNL    H10   35   0.455   0.237   0.201
    1UNL    H11   36   0.673   0.137   0.169
    1UNL    H12   37   0.673  -0.107   0.126
    1UNL    H13   38   0.465  -0.237   0.091
    1UNL    H14   39   0.226  -0.309   0.006
    1UNL    H15   40  -0.016  -0.319  -0.030
    1UNL    H16   41  -0.207  -0.177  -0.111
    1UNL    H17   42  -0.223  -0.214   0.063
    1UNL    H18   43  -0.337   0.002   0.107
   0.00000   0.00000   0.00000   0.00000   0.00000   0.00000   0.00000   0.00000   0.00000
Generated with MDTraj, t= 26.0
 43
    1UNL     C1    1  -0.503  -0.137  -0.069
    1UNL     C2    2  -0.407  -0.020  -0.103
    1UNL     O1    3  -0.350  -0.047  -0.237
    1UNL     C3    4  -0.247   0.041  -0.272
    1UNL     C4    5  -0.187   0.134  -0.192
    1UNL     C5    6  -0.100   0.244  -0.251
    1UNL     O2    7  -0.043   0.319  -0.172
    1UNL     O3    8  -0.095   0.241  -0.377
    1UNL     C6    9  -0.210   0.133  -0.041
    1UNL     C7   10  -0.081   0.146   0.049
    1UNL     C8   11  -0.002   0.021   0.043
    1UNL     C9   12   0.134   0.023   0.061
    1UNL     N1   13   0.222   0.124   0.101
    1UNL    C10   14   0.354   0.075   0.114
    1UNL    C11   15   0.470   0.140   0.153
    1UNL    C12   16   0.579   0.062   0.167
    1UNL    C13   17   0.576  -0.073   0.142
    1UNL    C14   18   0.466  -0.136   0.094
    1UNL    C15   19   0.347  -0.058   0.079
    1UNL    C16   20   0.213  -0.093   0.043
    1UNL    C17   21   0.157  -0.220   0.021
    1UNL    C18   22   0.019  -0.221   0.025
    1UNL     N2   23  -0.059  -0.104   0.021
    1UNL    C19   24  -0.208  -0.116   0.018
    1UNL    C20   25  -0.293   0.005   0.004
    1UNL     H1   26  -0.535  -0.182  -0.159
    1UNL     H2   27  -0.582  -0.079  -0.020
    1UNL     H3   28  -0.462  -0.215  -0.002
    1UNL     H4   29  -0.465   0.076  -0.111
    1UNL     H5   30  -0.222   0.037  -0.373
    1UNL     H6   31  -0.256   0.235  -0.024
    1UNL     H7   32  -0.096   0.175   0.156
    1UNL     H8   33  -0.010   0.224  -0.006
    1UNL     H9   34   0.213   0.226   0.101
    1UNL    H10   35   0.473   0.244   0.185
    1UNL    H11   36   0.663   0.098   0.219
    1UNL    H12   37   0.668  -0.127   0.131
    1UNL    H13   38   0.451  -0.239   0.086
    1UNL    H14   39   0.222  -0.302   0.030
    1UNL    H15   40  -0.032  -0.317   0.012
    1UNL    H16   41  -0.213  -0.186  -0.075
    1UNL    H17   42  -0.237  -0.178   0.104
    1UNL    H18   43  -0.347   0.027   0.101
   0.00000   0.00000   0.00000   0.00000   0.00000   0.00000   0.00000   0.00000   0.00000
Generated with MDTraj, t= 27.0
 43
    1UNL     C1    1  -0.490  -0.151  -0.069
    1UNL     C2    2  -0.413  -0.019  -0.100
    1UNL     O1    3  -0.365  -0.030  -0.242
    1UNL     C3    4  -0.256   0.038  -0.272
    1UNL     C4    5  -0.190   0.135  -0.189
    1UNL     C5    6  -0.106   0.241  -0.247
    1UNL     O2    7  -0.064   0.326  -0.169
    1UNL     O3    8  -0.084   0.234  -0.373
    1UNL     C6    9  -0.213   0.128  -0.042
    1UNL     C7   10  -0.083   0.150   0.040
    1UNL     C8   11   0.003   0.028   0.042
    1UNL     C9   12   0.140   0.027   0.068
    1UNL     N1   13   0.225   0.131   0.105
    1UNL    C10   14   0.356   0.079   0.116
    1UNL    C11   15   0.479   0.136   0.132
    1UNL    C12   16   0.592   0.054   0.149
    1UNL    C13   17   0.580  -0.082   0.144
    1UNL    C14   18   0.465  -0.142   0.116
    1UNL    C15   19   0.350  -0.062   0.096
    1UNL    C16   20   0.209  -0.095   0.074
    1UNL    C17   21   0.147  -0.216   0.044
    1UNL    C18   22   0.018  -0.216   0.010
    1UNL     N2   23  -0.052  -0.092   0.017
    1UNL    C19   24  -0.201  -0.117  -0.013
    1UNL    C20   25  -0.289  -0.000  -0.002
    1UNL     H1   26  -0.592  -0.135  -0.099
    1UNL     H2   27  -0.481  -0.161   0.041
    1UNL     H3   28  -0.456  -0.235  -0.126
    1UNL     H4   29  -0.477   0.073  -0.097
    1UNL     H5   30  -0.227   0.023  -0.374
    1UNL     H6   31  -0.282   0.214  -0.016
    1UNL     H7   32  -0.113   0.168   0.146
    1UNL     H8   33  -0.016   0.236  -0.003
    1UNL     H9   34   0.201   0.233   0.098
    1UNL    H10   35   0.484   0.242   0.133
    1UNL    H11   36   0.689   0.098   0.175
    1UNL    H12   37   0.668  -0.142   0.172
    1UNL    H13   38   0.463  -0.249   0.078
    1UNL    H14   39   0.207  -0.307   0.039
    1UNL    H15   40  -0.037  -0.301  -0.014
    1UNL    H16   41  -0.225  -0.144  -0.123
    1UNL    H17   42  -0.239  -0.196   0.057
    1UNL    H18   43  -0.330  -0.001   0.103
   0.00000   0.00000   0.00000   0.00000   0.00000   0.00000   0.00000   0.00000   0.00000
Generated with MDTraj, t= 28.0
 43
    1UNL     C1    1  -0.517  -0.114  -0.063
    1UNL     C2    2  -0.412  -0.011  -0.100
    1UNL     O1    3  -0.371  -0.015  -0.237
    1UNL     C3    4  -0.280   0.081  -0.264
    1UNL     C4    5  -0.199   0.156  -0.186
    1UNL     C5    6  -0.101   0.243  -0.244
    1UNL     O2    7  -0.051   0.328  -0.174
    1UNL     O3    8  -0.077   0.219  -0.363
    1UNL     C6    9  -0.213   0.129  -0.041
    1UNL     C7   10  -0.074   0.132   0.024
    1UNL     C8   11   0.002   0.002   0.035
    1UNL     C9   12   0.138   0.011   0.065
    1UNL     N1   13   0.217   0.120   0.084
    1UNL    C10   14   0.349   0.076   0.113
    1UNL    C11   15   0.462   0.152   0.127
    1UNL    C12   16   0.579   0.084   0.145
    1UNL    C13   17   0.590  -0.055   0.142
    1UNL    C14   18   0.477  -0.135   0.125
    1UNL    C15   19   0.352  -0.068   0.113
    1UNL    C16   20   0.217  -0.106   0.090
    1UNL    C17   21   0.155  -0.237   0.070
    1UNL    C18   22   0.028  -0.237   0.026
    1UNL     N2   23  -0.045  -0.123   0.010
    1UNL    C19   24  -0.188  -0.137  -0.037
    1UNL    C20   25  -0.282  -0.015  -0.014
    1UNL     H1   26  -0.581  -0.130  -0.150
    1UNL     H2   27  -0.577  -0.082   0.023
    1UNL     H3   28  -0.484  -0.212  -0.047
    1UNL     H4   29  -0.450   0.100  -0.099
    1UNL     H5   30  -0.263   0.075  -0.373
    1UNL     H6   31  -0.283   0.204   0.009
    1UNL     H7   32  -0.089   0.170   0.131
    1UNL     H8   33  -0.013   0.206  -0.035
    1UNL     H9   34   0.187   0.221   0.085
    1UNL    H10   35   0.473   0.259   0.108
    1UNL    H11   36   0.671   0.144   0.162
    1UNL    H12   37   0.683  -0.106   0.155
    1UNL    H13   38   0.481  -0.231   0.087
    1UNL    H14   39   0.215  -0.326   0.067
    1UNL    H15   40  -0.030  -0.335   0.022
    1UNL    H16   41  -0.172  -0.140  -0.150
    1UNL    H17   42  -0.243  -0.229   0.004
    1UNL    H18   43  -0.304  -0.026   0.096
   0.00000   0.00000   0.00000   0.00000   0.00000   0.00000   0.00000   0.00000   0.00000
Generated with MDTraj, t= 29.0
 43
    1UNL     C1    1  -0.496  -0.126  -0.048
    1UNL     C2    2  -0.409  -0.013  -0.099
    1UNL     O1    3  -0.392  -0.004  -0.239
    1UNL     C3    4  -0.284   0.070  -0.275
    1UNL     C4    5  -0.192   0.137  -0.201
    1UNL     C5    6  -0.092   0.235  -0.250
    1UNL     O2    7  -0.032   0.306  -0.166
    1UNL     O3    8  -0.083   0.247  -0.373
    1UNL     C6    9  -0.210   0.124  -0.049
    1UNL     C7   10  -0.084   0.132   0.039
    1UNL     C8   11   0.001   0.006   0.039
    1UNL     C9   12   0.137   0.011   0.066
    1UNL     N1   13   0.221   0.121   0.078
    1UNL    C10   14   0.348   0.081   0.104
    1UNL    C11   15   0.461   0.155   0.128
    1UNL    C12   16   0.579   0.078   0.148
    1UNL    C13   17   0.581  -0.064   0.152
    1UNL    C14   18   0.469  -0.137   0.133
    1UNL    C15   19   0.352  -0.058   0.111
    1UNL    C16   20   0.218  -0.103   0.081
    1UNL    C17   21   0.158  -0.227   0.054
    1UNL    C18   22   0.027  -0.234   0.022
    1UNL     N2   23  -0.053  -0.121   0.020
    1UNL    C19   24  -0.187  -0.129  -0.035
    1UNL    C20   25  -0.278  -0.011  -0.007
    1UNL     H1   26  -0.598  -0.120  -0.093
    1UNL     H2   27  -0.507  -0.131   0.058
    1UNL     H3   28  -0.475  -0.222  -0.086
    1UNL     H4   29  -0.458   0.091  -0.073
    1UNL     H5   30  -0.271   0.078  -0.385
    1UNL     H6   31  -0.290   0.198  -0.016
    1UNL     H7   32  -0.113   0.159   0.149
    1UNL     H8   33  -0.025   0.211  -0.000
    1UNL     H9   34   0.191   0.223   0.072
    1UNL    H10   35   0.463   0.261   0.121
    1UNL    H11   36   0.665   0.131   0.172
    1UNL    H12   37   0.681  -0.107   0.150
    1UNL    H13   38   0.474  -0.249   0.143
    1UNL    H14   39   0.217  -0.317   0.059
    1UNL    H15   40  -0.023  -0.323   0.024
    1UNL    H16   41  -0.189  -0.145  -0.146
    1UNL    H17   42  -0.224  -0.225   0.022
    1UNL    H18   43  -0.308  -0.019   0.101
   0.00000   0.00000   0.00000   0.00000   0.00000   0.00000   0.00000   0.00000   0.00000
Generated with MDTraj, t= 30.0
 43
    1UNL     C1    1  -0.490  -0.154  -0.071
    1UNL     C2    2  -0.413  -0.021  -0.105
    1UNL     O1    3  -0.369  -0.024  -0.239
    1UNL     C3    4  -0.272   0.062  -0.263
    1UNL     C4    5  -0.204   0.153  -0.181
    1UNL     C5    6  -0.104   0.228  -0.251
    1UNL     O2    7  -0.013   0.284  -0.184
    1UNL     O3    8  -0.123   0.231  -0.378
    1UNL     C6    9  -0.220   0.138  -0.033
    1UNL     C7   10  -0.085   0.147   0.053
    1UNL     C8   11   0.001   0.028   0.036
    1UNL     C9   12   0.140   0.028   0.057
    1UNL     N1   13   0.230   0.130   0.090
    1UNL    C10   14   0.357   0.078   0.119
    1UNL    C11   15   0.478   0.141   0.151
    1UNL    C12   16   0.589   0.065   0.162
    1UNL    C13   17   0.587  -0.077   0.149
    1UNL    C14   18   0.466  -0.144   0.127
    1UNL    C15   19   0.350  -0.067   0.096
    1UNL    C16   20   0.217  -0.096   0.066
    1UNL    C17   21   0.153  -0.215   0.034
    1UNL    C18   22   0.017  -0.214   0.012
    1UNL     N2   23  -0.051  -0.093   0.011
    1UNL    C19   24  -0.191  -0.116  -0.016
    1UNL    C20   25  -0.295   0.000  -0.005
    1UNL     H1   26  -0.572  -0.161  -0.145
    1UNL     H2   27  -0.524  -0.157   0.029
    1UNL     H3   28  -0.433  -0.241  -0.102
    1UNL     H4   29  -0.477   0.078  -0.093
    1UNL     H5   30  -0.250   0.070  -0.368
    1UNL     H6   31  -0.292   0.223  -0.011
    1UNL     H7   32  -0.102   0.167   0.168
    1UNL     H8   33  -0.027   0.225   0.017
    1UNL     H9   34   0.209   0.232   0.086
    1UNL    H10   35   0.470   0.243   0.183
    1UNL    H11   36   0.690   0.115   0.159
    1UNL    H12   37   0.678  -0.129   0.170
    1UNL    H13   38   0.447  -0.247   0.148
    1UNL    H14   39   0.211  -0.305   0.053
    1UNL    H15   40  -0.038  -0.310  -0.018
    1UNL    H16   41  -0.186  -0.155  -0.121
    1UNL    H17   42  -0.225  -0.203   0.054
    1UNL    H18   43  -0.330  -0.004   0.102
   0.00000   0.00000   0.00000   0.00000   0.00000   0.00000   0.00000   0.00000   0.00000
Generated with MDTraj, t= 31.0
 43
    1UNL     C1    1  -0.506  -0.117  -0.034
    1UNL     C2    2  -0.408   0.000  -0.091
    1UNL     O1    3  -0.373  -0.027  -0.235
    1UNL     C3    4  -0.273   0.056  -0.276
    1UNL     C4    5  -0.193   0.131  -0.197
    1UNL     C5    6  -0.103   0.229  -0.260
    1UNL     O2    7  -0.038   0.302  -0.179
    1UNL     O3    8  -0.094   0.235  -0.385
    1UNL     C6    9  -0.208   0.125  -0.045
    1UNL     C7   10  -0.073   0.140   0.036
    1UNL     C8   11   0.002   0.012   0.047
    1UNL     C9   12   0.138   0.020   0.066
    1UNL     N1   13   0.215   0.121   0.114
    1UNL    C10   14   0.345   0.079   0.119
    1UNL    C11   15   0.464   0.141   0.168
    1UNL    C12   16   0.582   0.070   0.177
    1UNL    C13   17   0.580  -0.069   0.141
    1UNL    C14   18   0.466  -0.128   0.101
    1UNL    C15   19   0.351  -0.056   0.082
    1UNL    C16   20   0.217  -0.092   0.052
    1UNL    C17   21   0.161  -0.220   0.030
    1UNL    C18   22   0.029  -0.227   0.010
    1UNL     N2   23  -0.048  -0.110   0.008
    1UNL    C19   24  -0.191  -0.128  -0.023
    1UNL    C20   25  -0.284  -0.004  -0.004
    1UNL     H1   26  -0.593  -0.130  -0.097
    1UNL     H2   27  -0.528  -0.083   0.063
    1UNL     H3   28  -0.449  -0.211  -0.040
    1UNL     H4   29  -0.460   0.106  -0.077
    1UNL     H5   30  -0.260   0.051  -0.379
    1UNL     H6   31  -0.283   0.209  -0.031
    1UNL     H7   32  -0.091   0.178   0.142
    1UNL     H8   33  -0.009   0.218  -0.001
    1UNL     H9   34   0.184   0.216   0.131
    1UNL    H10   35   0.448   0.244   0.205
    1UNL    H11   36   0.670   0.118   0.201
    1UNL    H12   37   0.670  -0.130   0.143
    1UNL    H13   38   0.460  -0.233   0.100
    1UNL    H14   39   0.218  -0.310   0.045
    1UNL    H15   40  -0.015  -0.317  -0.011
    1UNL    H16   41  -0.195  -0.168  -0.126
    1UNL    H17   42  -0.216  -0.216   0.049
    1UNL    H18   43  -0.317   0.000   0.102
   0.00000   0.00000   0.00000   0.00000   0.00000   0.00000   0.00000   0.00000   0.00000
Generated with MDTraj, t= 32.0
 43
    1UNL     C1    1  -0.531  -0.093  -0.046
    1UNL     C2    2  -0.407   0.002  -0.085
    1UNL     O1    3  -0.374  -0.024  -0.225
    1UNL     C3    4  -0.279   0.055  -0.270
    1UNL     C4    5  -0.197   0.131  -0.191
    1UNL     C5    6  -0.103   0.223  -0.253
    1UNL     O2    7  -0.055   0.321  -0.190
    1UNL     O3    8  -0.076   0.198  -0.370
    1UNL     C6    9  -0.205   0.123  -0.041
    1UNL     C7   10  -0.070   0.134   0.038
    1UNL     C8   11   0.002   0.008   0.029
    1UNL     C9   12   0.132   0.010   0.072
    1UNL     N1   13   0.215   0.116   0.117
    1UNL    C10   14   0.347   0.074   0.130
    1UNL    C11   15   0.461   0.147   0.173
    1UNL    C12   16   0.583   0.082   0.166
    1UNL    C13   17   0.594  -0.056   0.142
    1UNL    C14   18   0.476  -0.126   0.103
    1UNL    C15   19   0.353  -0.063   0.101
    1UNL    C16   20   0.217  -0.104   0.065
    1UNL    C17   21   0.164  -0.222   0.025
    1UNL    C18   22   0.035  -0.220  -0.019
    1UNL     N2   23  -0.048  -0.110  -0.011
    1UNL    C19   24  -0.195  -0.127  -0.025
    1UNL    C20   25  -0.279  -0.004   0.001
    1UNL     H1   26  -0.617  -0.077  -0.105
    1UNL     H2   27  -0.548  -0.058   0.054
    1UNL     H3   28  -0.507  -0.201  -0.059
    1UNL     H4   29  -0.442   0.113  -0.085
    1UNL     H5   30  -0.263   0.054  -0.378
    1UNL     H6   31  -0.273   0.210  -0.015
    1UNL     H7   32  -0.077   0.168   0.142
    1UNL     H8   33  -0.006   0.215  -0.002
    1UNL     H9   34   0.184   0.209   0.134
    1UNL    H10   35   0.450   0.252   0.179
    1UNL    H11   36   0.677   0.138   0.192
    1UNL    H12   37   0.687  -0.107   0.143
    1UNL    H13   38   0.484  -0.232   0.068
    1UNL    H14   39   0.233  -0.304   0.011
    1UNL    H15   40  -0.019  -0.314  -0.053
    1UNL    H16   41  -0.208  -0.152  -0.133
    1UNL    H17   42  -0.237  -0.214   0.037
    1UNL    H18   43  -0.306   0.008   0.105
   0.00000   0.00000   0.00000   0.00000   0.00000   0.00000   0.00000   0.00000   0.00000
Generated with MDTraj, t= 33.0
 43
    1UNL     C1    1  -0.495  -0.138  -0.044
    1UNL     C2    2  -0.416  -0.015  -0.084
    1UNL     O1    3  -0.373  -0.027  -0.228
    1UNL     C3    4  -0.280   0.060  -0.262
    1UNL     C4    5  -0.198   0.137  -0.185
    1UNL     C5    6  -0.092   0.216  -0.252
    1UNL     O2    7  -0.038   0.304  -0.183
    1UNL     O3    8  -0.063   0.199  -0.370
    1UNL     C6    9  -0.217   0.135  -0.040
    1UNL     C7   10  -0.079   0.148   0.043
    1UNL     C8   11   0.000   0.023   0.037
    1UNL     C9   12   0.133   0.023   0.070
    1UNL     N1   13   0.225   0.126   0.100
    1UNL    C10   14   0.351   0.080   0.118
    1UNL    C11   15   0.470   0.143   0.159
    1UNL    C12   16   0.585   0.069   0.179
    1UNL    C13   17   0.583  -0.065   0.138
    1UNL    C14   18   0.464  -0.138   0.102
    1UNL    C15   19   0.347  -0.060   0.100
    1UNL    C16   20   0.208  -0.093   0.064
    1UNL    C17   21   0.149  -0.213   0.022
    1UNL    C18   22   0.017  -0.213  -0.012
    1UNL     N2   23  -0.053  -0.097   0.003
    1UNL    C19   24  -0.195  -0.114  -0.038
    1UNL    C20   25  -0.286  -0.001  -0.000
    1UNL     H1   26  -0.577  -0.150  -0.108
    1UNL     H2   27  -0.535  -0.135   0.058
    1UNL     H3   28  -0.449  -0.236  -0.068
    1UNL     H4   29  -0.472   0.082  -0.083
    1UNL     H5   30  -0.251   0.072  -0.371
    1UNL     H6   31  -0.280   0.223  -0.010
    1UNL     H7   32  -0.109   0.165   0.142
    1UNL     H8   33  -0.024   0.245   0.023
    1UNL     H9   34   0.198   0.219   0.120
    1UNL    H10   35   0.472   0.253   0.171
    1UNL    H11   36   0.671   0.116   0.212
    1UNL    H12   37   0.669  -0.127   0.165
    1UNL    H13   38   0.471  -0.227   0.048
    1UNL    H14   39   0.209  -0.300  -0.003
    1UNL    H15   40  -0.022  -0.303  -0.046
    1UNL    H16   41  -0.204  -0.135  -0.148
    1UNL    H17   42  -0.225  -0.209   0.017
    1UNL    H18   43  -0.308   0.005   0.103
   0.00000   0.00000   0.00000   0.00000   0.00000   0.00000   0.00000   0.00000   0.00000
Generated with MDTraj, t= 34.0
 43
    1UNL     C1    1  -0.490  -0.152  -0.070
    1UNL     C2    2  -0.421  -0.019  -0.094
    1UNL     O1    3  -0.397   0.007  -0.231
    1UNL     C3    4  -0.292   0.086  -0.270
    1UNL     C4    5  -0.192   0.133  -0.193
    1UNL     C5    6  -0.083   0.215  -0.252
    1UNL     O2    7  -0.021   0.281  -0.170
    1UNL     O3    8  -0.067   0.215  -0.370
    1UNL     C6    9  -0.216   0.124  -0.044
    1UNL     C7   10  -0.084   0.133   0.047
    1UNL     C8   11   0.002   0.015   0.042
    1UNL     C9   12   0.142   0.027   0.057
    1UNL     N1   13   0.223   0.138   0.081
    1UNL    C10   14   0.351   0.088   0.114
    1UNL    C11   15   0.472   0.145   0.149
    1UNL    C12   16   0.583   0.071   0.169
    1UNL    C13   17   0.583  -0.071   0.148
    1UNL    C14   18   0.466  -0.132   0.107
    1UNL    C15   19   0.353  -0.051   0.099
    1UNL    C16   20   0.218  -0.091   0.049
    1UNL    C17   21   0.154  -0.213   0.026
    1UNL    C18   22   0.015  -0.219   0.017
    1UNL     N2   23  -0.056  -0.105   0.027
    1UNL    C19   24  -0.196  -0.129  -0.005
    1UNL    C20   25  -0.286  -0.004  -0.008
    1UNL     H1   26  -0.579  -0.161  -0.130
    1UNL     H2   27  -0.529  -0.173   0.032
    1UNL     H3   28  -0.446  -0.243  -0.110
    1UNL     H4   29  -0.493   0.057  -0.064
    1UNL     H5   30  -0.299   0.106  -0.374
    1UNL     H6   31  -0.281   0.210  -0.017
    1UNL     H7   32  -0.106   0.167   0.141
    1UNL     H8   33  -0.018   0.219   0.009
    1UNL     H9   34   0.189   0.227   0.108
    1UNL    H10   35   0.485   0.248   0.157
    1UNL    H11   36   0.671   0.117   0.218
    1UNL    H12   37   0.668  -0.129   0.171
    1UNL    H13   38   0.464  -0.241   0.086
    1UNL    H14   39   0.208  -0.304   0.024
    1UNL    H15   40  -0.044  -0.306  -0.023
    1UNL    H16   41  -0.198  -0.180  -0.106
    1UNL    H17   42  -0.234  -0.207   0.067
    1UNL    H18   43  -0.317   0.015   0.090
   0.00000   0.00000   0.00000   0.00000   0.00000   0.00000   0.00000   0.00000   0.00000
Generated with MDTraj, t= 35.0
 43
    1UNL     C1    1  -0.509  -0.121  -0.066
    1UNL     C2    2  -0.409  -0.010  -0.097
    1UNL     O1    3  -0.366  -0.014  -0.232
    1UNL     C3    4  -0.276   0.080  -0.263
    1UNL     C4    5  -0.191   0.143  -0.171
    1UNL     C5    6  -0.078   0.217  -0.239
    1UNL     O2    7   0.011   0.274  -0.175
    1UNL     O3    8  -0.087   0.223  -0.361
    1UNL     C6    9  -0.218   0.129  -0.021
    1UNL     C7   10  -0.081   0.129   0.050
    1UNL     C8   11  -0.007   0.007   0.036
    1UNL     C9   12   0.132   0.015   0.058
    1UNL     N1   13   0.215   0.123   0.083
    1UNL    C10   14   0.343   0.081   0.116
    1UNL    C11   15   0.457   0.159   0.130
    1UNL    C12   16   0.574   0.091   0.139
    1UNL    C13   17   0.580  -0.048   0.142
    1UNL    C14   18   0.469  -0.124   0.116
    1UNL    C15   19   0.346  -0.059   0.106
    1UNL    C16   20   0.211  -0.103   0.067
    1UNL    C17   21   0.148  -0.226   0.051
    1UNL    C18   22   0.013  -0.231   0.015
    1UNL     N2   23  -0.058  -0.114   0.010
    1UNL    C19   24  -0.191  -0.123  -0.052
    1UNL    C20   25  -0.284  -0.008  -0.002
    1UNL     H1   26  -0.601  -0.107  -0.125
    1UNL     H2   27  -0.531  -0.117   0.043
    1UNL     H3   28  -0.480  -0.217  -0.100
    1UNL     H4   29  -0.464   0.081  -0.092
    1UNL     H5   30  -0.277   0.099  -0.366
    1UNL     H6   31  -0.281   0.209   0.020
    1UNL     H7   32  -0.081   0.141   0.154
    1UNL     H8   33  -0.020   0.219   0.016
    1UNL     H9   34   0.185   0.219   0.068
    1UNL    H10   35   0.440   0.268   0.139
    1UNL    H11   36   0.669   0.137   0.144
    1UNL    H12   37   0.676  -0.103   0.157
    1UNL    H13   38   0.461  -0.228   0.131
    1UNL    H14   39   0.195  -0.326   0.061
    1UNL    H15   40  -0.021  -0.323  -0.027
    1UNL    H16   41  -0.190  -0.139  -0.165
    1UNL    H17   42  -0.236  -0.214  -0.009
    1UNL    H18   43  -0.301  -0.024   0.099
   0.00000   0.00000   0.00000   0.00000   0.00000   0.00000   0.00000   0.00000   0.00000
Generated with MDTraj, t= 36.0
 43
    1UNL     C1    1  -0.527  -0.110  -0.067
    1UNL     C2    2  -0.415  -0.005  -0.103
    1UNL     O1    3  -0.377  -0.007  -0.247
    1UNL     C3    4  -0.267   0.058  -0.283
    1UNL     C4    5  -0.180   0.117  -0.187
    1UNL     C5    6  -0.085   0.218  -0.236
    1UNL     O2    7  -0.024   0.291  -0.152
    1UNL     O3    8  -0.071   0.243  -0.356
    1UNL     C6    9  -0.209   0.116  -0.047
    1UNL     C7   10  -0.090   0.126   0.054
    1UNL     C8   11  -0.003   0.007   0.053
    1UNL     C9   12   0.132   0.017   0.085
    1UNL     N1   13   0.216   0.123   0.107
    1UNL    C10   14   0.349   0.082   0.101
    1UNL    C11   15   0.470   0.154   0.112
    1UNL    C12   16   0.592   0.085   0.130
    1UNL    C13   17   0.585  -0.053   0.126
    1UNL    C14   18   0.471  -0.125   0.123
    1UNL    C15   19   0.353  -0.058   0.104
    1UNL    C16   20   0.212  -0.097   0.082
    1UNL    C17   21   0.154  -0.221   0.054
    1UNL    C18   22   0.019  -0.225   0.013
    1UNL     N2   23  -0.057  -0.112   0.014
    1UNL    C19   24  -0.202  -0.137  -0.025
    1UNL    C20   25  -0.289  -0.010  -0.019
    1UNL     H1   26  -0.612  -0.089  -0.138
    1UNL     H2   27  -0.549  -0.099   0.040
    1UNL     H3   28  -0.493  -0.207  -0.094
    1UNL     H4   29  -0.466   0.086  -0.097
    1UNL     H5   30  -0.250   0.084  -0.392
    1UNL     H6   31  -0.280   0.196  -0.020
    1UNL     H7   32  -0.124   0.142   0.154
    1UNL     H8   33  -0.027   0.208   0.027
    1UNL     H9   34   0.194   0.222   0.083
    1UNL    H10   35   0.467   0.259   0.127
    1UNL    H11   36   0.684   0.140   0.109
    1UNL    H12   37   0.675  -0.106   0.133
    1UNL    H13   38   0.476  -0.234   0.131
    1UNL    H14   39   0.214  -0.309   0.060
    1UNL    H15   40  -0.036  -0.310  -0.028
    1UNL    H16   41  -0.199  -0.178  -0.132
    1UNL    H17   42  -0.249  -0.222   0.024
    1UNL    H18   43  -0.319  -0.008   0.080
   0.00000   0.00000   0.00000   0.00000   0.00000   0.00000   0.00000   0.00000   0.00000
Generated with MDTraj, t= 37.0
 43
    1UNL     C1    1  -0.488  -0.147  -0.084
    1UNL     C2    2  -0.401  -0.021  -0.111
    1UNL     O1    3  -0.333  -0.034  -0.243
    1UNL     C3    4  -0.242   0.065  -0.270
    1UNL     C4    5  -0.191   0.145  -0.175
    1UNL     C5    6  -0.092   0.236  -0.234
    1UNL     O2    7  -0.037   0.328  -0.167
    1UNL     O3    8  -0.052   0.223  -0.351
    1UNL     C6    9  -0.215   0.132  -0.033
    1UNL     C7   10  -0.084   0.144   0.053
    1UNL     C8   11  -0.011   0.021   0.050
    1UNL     C9   12   0.125   0.021   0.076
    1UNL     N1   13   0.211   0.126   0.091
    1UNL    C10   14   0.343   0.080   0.095
    1UNL    C11   15   0.461   0.137   0.139
    1UNL    C12   16   0.580   0.073   0.133
    1UNL    C13   17   0.579  -0.062   0.110
    1UNL    C14   18   0.458  -0.132   0.081
    1UNL    C15   19   0.339  -0.060   0.080
    1UNL    C16   20   0.202  -0.101   0.071
    1UNL    C17   21   0.137  -0.226   0.058
    1UNL    C18   22   0.007  -0.222   0.039
    1UNL     N2   23  -0.064  -0.104   0.027
    1UNL    C19   24  -0.204  -0.129  -0.002
    1UNL    C20   25  -0.296  -0.002  -0.002
    1UNL     H1   26  -0.535  -0.190  -0.179
    1UNL     H2   27  -0.555  -0.122  -0.004
    1UNL     H3   28  -0.429  -0.230  -0.049
    1UNL     H4   29  -0.462   0.063  -0.116
    1UNL     H5   30  -0.194   0.068  -0.372
    1UNL     H6   31  -0.276   0.213   0.005
    1UNL     H7   32  -0.105   0.151   0.161
    1UNL     H8   33  -0.028   0.221   0.016
    1UNL     H9   34   0.187   0.230   0.084
    1UNL    H10   35   0.468   0.243   0.159
    1UNL    H11   36   0.669   0.127   0.155
    1UNL    H12   37   0.675  -0.118   0.098
    1UNL    H13   38   0.464  -0.240   0.063
    1UNL    H14   39   0.191  -0.319   0.055
    1UNL    H15   40  -0.041  -0.320   0.041
    1UNL    H16   41  -0.211  -0.189  -0.097
    1UNL    H17   42  -0.242  -0.197   0.074
    1UNL    H18   43  -0.335   0.011   0.094
   0.00000   0.00000   0.00000   0.00000   0.00000   0.00000   0.00000   0.00000   0.00000
Generated with MDTraj, t= 38.0
 43
    1UNL     C1    1  -0.507  -0.123  -0.101
    1UNL     C2    2  -0.394  -0.024  -0.126
    1UNL     O1    3  -0.321  -0.055  -0.246
    1UNL     C3    4  -0.223   0.036  -0.276
    1UNL     C4    5  -0.177   0.126  -0.181
    1UNL     C5    6  -0.090   0.232  -0.221
    1UNL     O2    7  -0.071   0.333  -0.148
    1UNL     O3    8  -0.037   0.225  -0.331
    1UNL     C6    9  -0.218   0.124  -0.041
    1UNL     C7   10  -0.099   0.147   0.064
    1UNL     C8   11  -0.015   0.022   0.063
    1UNL     C9   12   0.125   0.032   0.071
    1UNL     N1   13   0.225   0.131   0.093
    1UNL    C10   14   0.349   0.080   0.100
    1UNL    C11   15   0.472   0.139   0.121
    1UNL    C12   16   0.586   0.063   0.119
    1UNL    C13   17   0.577  -0.071   0.104
    1UNL    C14   18   0.456  -0.137   0.089
    1UNL    C15   19   0.341  -0.058   0.082
    1UNL    C16   20   0.201  -0.086   0.063
    1UNL    C17   21   0.144  -0.214   0.035
    1UNL    C18   22   0.006  -0.213   0.025
    1UNL     N2   23  -0.070  -0.101   0.043
    1UNL    C19   24  -0.215  -0.123   0.028
    1UNL    C20   25  -0.301   0.001  -0.008
    1UNL     H1   26  -0.602  -0.124  -0.162
    1UNL     H2   27  -0.523  -0.128   0.004
    1UNL     H3   28  -0.481  -0.229  -0.122
    1UNL     H4   29  -0.447   0.063  -0.131
    1UNL     H5   30  -0.182   0.030  -0.371
    1UNL     H6   31  -0.283   0.208  -0.026
    1UNL     H7   32  -0.135   0.170   0.165
    1UNL     H8   33  -0.038   0.219   0.022
    1UNL     H9   34   0.202   0.234   0.094
    1UNL    H10   35   0.469   0.248   0.118
    1UNL    H11   36   0.679   0.116   0.144
    1UNL    H12   37   0.670  -0.117   0.127
    1UNL    H13   38   0.452  -0.241   0.073
    1UNL    H14   39   0.213  -0.297   0.037
    1UNL    H15   40  -0.055  -0.299   0.007
    1UNL    H16   41  -0.232  -0.200  -0.051
    1UNL    H17   42  -0.253  -0.161   0.122
    1UNL    H18   43  -0.359   0.028   0.076
   0.00000   0.00000   0.00000   0.00000   0.00000   0.00000   0.00000   0.00000   0.00000
Generated with MDTraj, t= 39.0
 43
    1UNL     C1    1  -0.509  -0.109  -0.104
    1UNL     C2    2  -0.390  -0.017  -0.129
    1UNL     O1    3  -0.303  -0.054  -0.244
    1UNL     C3    4  -0.200   0.027  -0.259
    1UNL     C4    5  -0.159   0.124  -0.167
    1UNL     C5    6  -0.071   0.227  -0.216
    1UNL     O2    7  -0.052   0.329  -0.143
    1UNL     O3    8  -0.031   0.221  -0.337
    1UNL     C6    9  -0.215   0.134  -0.027
    1UNL     C7   10  -0.099   0.137   0.077
    1UNL     C8   11  -0.016   0.017   0.063
    1UNL     C9   12   0.119   0.018   0.059
    1UNL     N1   13   0.200   0.124   0.085
    1UNL    C10   14   0.333   0.082   0.102
    1UNL    C11   15   0.454   0.155   0.104
    1UNL    C12   16   0.568   0.086   0.107
    1UNL    C13   17   0.574  -0.058   0.094
    1UNL    C14   18   0.460  -0.129   0.086
    1UNL    C15   19   0.337  -0.060   0.086
    1UNL    C16   20   0.202  -0.101   0.062
    1UNL    C17   21   0.134  -0.223   0.031
    1UNL    C18   22   0.002  -0.221   0.019
    1UNL     N2   23  -0.074  -0.108   0.042
    1UNL    C19   24  -0.223  -0.119   0.031
    1UNL    C20   25  -0.303   0.007  -0.000
    1UNL     H1   26  -0.530  -0.181  -0.186
    1UNL     H2   27  -0.599  -0.069  -0.059
    1UNL     H3   28  -0.488  -0.185  -0.024
    1UNL     H4   29  -0.432   0.071  -0.158
    1UNL     H5   30  -0.152   0.024  -0.356
    1UNL     H6   31  -0.270   0.226  -0.019
    1UNL     H7   32  -0.141   0.127   0.177
    1UNL     H8   33  -0.036   0.224   0.058
    1UNL     H9   34   0.171   0.222   0.091
    1UNL    H10   35   0.454   0.260   0.099
    1UNL    H11   36   0.661   0.136   0.115
    1UNL    H12   37   0.667  -0.110   0.113
    1UNL    H13   38   0.463  -0.239   0.079
    1UNL    H14   39   0.180  -0.320   0.035
    1UNL    H15   40  -0.049  -0.312  -0.013
    1UNL    H16   41  -0.240  -0.196  -0.045
    1UNL    H17   42  -0.259  -0.159   0.129
    1UNL    H18   43  -0.367   0.027   0.082
   0.00000   0.00000   0.00000   0.00000   0.00000   0.00000   0.00000   0.00000   0.00000
Generated with MDTraj, t= 40.0
 43
    1UNL     C1    1  -0.502  -0.125  -0.119
    1UNL     C2    2  -0.394  -0.017  -0.139
    1UNL     O1    3  -0.309  -0.048  -0.249
    1UNL     C3    4  -0.207   0.040  -0.258
    1UNL     C4    5  -0.162   0.130  -0.168
    1UNL     C5    6  -0.049   0.217  -0.206
    1UNL     O2    7   0.003   0.293  -0.121
    1UNL     O3    8  -0.019   0.210  -0.328
    1UNL     C6    9  -0.225   0.136  -0.026
    1UNL     C7   10  -0.116   0.133   0.083
    1UNL     C8   11  -0.021   0.018   0.070
    1UNL     C9   12   0.115   0.026   0.075
    1UNL     N1   13   0.199   0.138   0.086
    1UNL    C10   14   0.329   0.088   0.091
    1UNL    C11   15   0.450   0.160   0.104
    1UNL    C12   16   0.565   0.084   0.099
    1UNL    C13   17   0.565  -0.056   0.077
    1UNL    C14   18   0.455  -0.125   0.052
    1UNL    C15   19   0.332  -0.053   0.072
    1UNL    C16   20   0.196  -0.085   0.062
    1UNL    C17   21   0.128  -0.212   0.055
    1UNL    C18   22  -0.008  -0.226   0.051
    1UNL     N2   23  -0.073  -0.105   0.047
    1UNL    C19   24  -0.219  -0.124   0.021
    1UNL    C20   25  -0.305   0.001  -0.010
    1UNL     H1   26  -0.588  -0.107  -0.181
    1UNL     H2   27  -0.530  -0.137  -0.013
    1UNL     H3   28  -0.465  -0.227  -0.149
    1UNL     H4   29  -0.441   0.065  -0.176
    1UNL     H5   30  -0.154   0.022  -0.356
    1UNL     H6   31  -0.290   0.221  -0.013
    1UNL     H7   32  -0.160   0.134   0.180
    1UNL     H8   33  -0.046   0.226   0.065
    1UNL     H9   34   0.177   0.233   0.108
    1UNL    H10   35   0.440   0.269   0.116
    1UNL    H11   36   0.662   0.134   0.105
    1UNL    H12   37   0.661  -0.104   0.050
    1UNL    H13   38   0.446  -0.230   0.043
    1UNL    H14   39   0.195  -0.297   0.049
    1UNL    H15   40  -0.068  -0.313   0.052
    1UNL    H16   41  -0.231  -0.188  -0.066
    1UNL    H17   42  -0.262  -0.178   0.110
    1UNL    H18   43  -0.370   0.015   0.074
   0.00000   0.00000   0.00000   0.00000   0.00000   0.00000   0.00000   0.00000   0.00000
Generated with MDTraj, t= 41.0
 43
    1UNL     C1    1  -0.499  -0.135  -0.115
    1UNL     C2    2  -0.403  -0.015  -0.137
    1UNL     O1    3  -0.335  -0.018  -0.265
    1UNL     C3    4  -0.221   0.061  -0.273
    1UNL     C4    5  -0.153   0.129  -0.175
    1UNL     C5    6  -0.027   0.198  -0.192
    1UNL     O2    7   0.015   0.263  -0.096
    1UNL     O3    8   0.025   0.196  -0.305
    1UNL     C6    9  -0.223   0.130  -0.036
    1UNL     C7   10  -0.123   0.136   0.080
    1UNL     C8   11  -0.031   0.016   0.082
    1UNL     C9   12   0.105   0.022   0.102
    1UNL     N1   13   0.190   0.133   0.101
    1UNL    C10   14   0.328   0.095   0.075
    1UNL    C11   15   0.441   0.172   0.063
    1UNL    C12   16   0.559   0.097   0.062
    1UNL    C13   17   0.566  -0.044   0.062
    1UNL    C14   18   0.451  -0.120   0.072
    1UNL    C15   19   0.330  -0.046   0.084
    1UNL    C16   20   0.192  -0.090   0.092
    1UNL    C17   21   0.133  -0.219   0.061
    1UNL    C18   22   0.002  -0.222   0.036
    1UNL     N2   23  -0.078  -0.107   0.051
    1UNL    C19   24  -0.218  -0.125   0.012
    1UNL    C20   25  -0.305  -0.002  -0.012
    1UNL     H1   26  -0.528  -0.170  -0.212
    1UNL     H2   27  -0.589  -0.102  -0.056
    1UNL     H3   28  -0.448  -0.218  -0.061
    1UNL     H4   29  -0.458   0.067  -0.161
    1UNL     H5   30  -0.174   0.053  -0.370
    1UNL     H6   31  -0.287   0.216  -0.030
    1UNL     H7   32  -0.171   0.142   0.177
    1UNL     H8   33  -0.059   0.234   0.069
    1UNL     H9   34   0.142   0.212   0.051
    1UNL    H10   35   0.437   0.274   0.082
    1UNL    H11   36   0.652   0.145   0.036
    1UNL    H12   37   0.660  -0.088   0.050
    1UNL    H13   38   0.447  -0.230   0.071
    1UNL    H14   39   0.193  -0.301   0.028
    1UNL    H15   40  -0.048  -0.320   0.013
    1UNL    H16   41  -0.221  -0.184  -0.078
    1UNL    H17   42  -0.258  -0.183   0.101
    1UNL    H18   43  -0.361   0.023   0.076
   0.00000   0.00000   0.00000   0.00000   0.00000   0.00000   0.00000   0.00000   0.00000
Generated with MDTraj, t= 42.0
 43
    1UNL     C1    1  -0.517  -0.097  -0.146
    1UNL     C2    2  -0.400   0.006  -0.140
    1UNL     O1    3  -0.316  -0.014  -0.254
    1UNL     C3    4  -0.201   0.049  -0.255
    1UNL     C4    5  -0.149   0.135  -0.155
    1UNL     C5    6  -0.021   0.200  -0.181
    1UNL     O2    7   0.023   0.286  -0.107
    1UNL     O3    8   0.036   0.158  -0.285
    1UNL     C6    9  -0.218   0.120  -0.019
    1UNL     C7   10  -0.117   0.125   0.100
    1UNL     C8   11  -0.034  -0.001   0.084
    1UNL     C9   12   0.102   0.015   0.090
    1UNL     N1   13   0.180   0.132   0.075
    1UNL    C10   14   0.314   0.095   0.065
    1UNL    C11   15   0.423   0.173   0.050
    1UNL    C12   16   0.547   0.113   0.034
    1UNL    C13   17   0.561  -0.026   0.051
    1UNL    C14   18   0.453  -0.110   0.083
    1UNL    C15   19   0.324  -0.044   0.086
    1UNL    C16   20   0.191  -0.092   0.100
    1UNL    C17   21   0.134  -0.222   0.081
    1UNL    C18   22   0.002  -0.236   0.052
    1UNL     N2   23  -0.082  -0.124   0.049
    1UNL    C19   24  -0.218  -0.133  -0.010
    1UNL    C20   25  -0.306  -0.011  -0.013
    1UNL     H1   26  -0.602  -0.048  -0.190
    1UNL     H2   27  -0.554  -0.124  -0.041
    1UNL     H3   28  -0.494  -0.186  -0.204
    1UNL     H4   29  -0.439   0.098  -0.145
    1UNL     H5   30  -0.138   0.033  -0.338
    1UNL     H6   31  -0.284   0.204  -0.013
    1UNL     H7   32  -0.169   0.132   0.198
    1UNL     H8   33  -0.054   0.221   0.091
    1UNL     H9   34   0.153   0.212   0.011
    1UNL    H10   35   0.428   0.284   0.047
    1UNL    H11   36   0.626   0.186   0.016
    1UNL    H12   37   0.663  -0.073   0.048
    1UNL    H13   38   0.464  -0.215   0.089
    1UNL    H14   39   0.208  -0.302   0.077
    1UNL    H15   40  -0.039  -0.327   0.025
    1UNL    H16   41  -0.199  -0.160  -0.112
    1UNL    H17   42  -0.268  -0.223   0.038
    1UNL    H18   43  -0.370  -0.000   0.073
   0.00000   0.00000   0.00000   0.00000   0.00000   0.00000   0.00000   0.00000   0.00000
Generated with MDTraj, t= 43.0
 43
    1UNL     C1    1  -0.511  -0.110  -0.141
    1UNL     C2    2  -0.399  -0.001  -0.147
    1UNL     O1    3  -0.306  -0.034  -0.264
    1UNL     C3    4  -0.189   0.035  -0.260
    1UNL     C4    5  -0.147   0.116  -0.162
    1UNL     C5    6  -0.023   0.213  -0.172
    1UNL     O2    7  -0.009   0.299  -0.085
    1UNL     O3    8   0.063   0.179  -0.258
    1UNL     C6    9  -0.219   0.125  -0.030
    1UNL     C7   10  -0.117   0.131   0.088
    1UNL     C8   11  -0.034   0.008   0.078
    1UNL     C9   12   0.104   0.019   0.080
    1UNL     N1   13   0.183   0.135   0.075
    1UNL    C10   14   0.319   0.098   0.075
    1UNL    C11   15   0.436   0.169   0.061
    1UNL    C12   16   0.559   0.102   0.030
    1UNL    C13   17   0.561  -0.036   0.038
    1UNL    C14   18   0.446  -0.109   0.063
    1UNL    C15   19   0.320  -0.046   0.073
    1UNL    C16   20   0.186  -0.096   0.078
    1UNL    C17   21   0.127  -0.224   0.071
    1UNL    C18   22  -0.010  -0.228   0.068
    1UNL     N2   23  -0.087  -0.113   0.059
    1UNL    C19   24  -0.226  -0.129   0.012
    1UNL    C20   25  -0.312  -0.002  -0.013
    1UNL     H1   26  -0.535  -0.150  -0.240
    1UNL     H2   27  -0.612  -0.067  -0.116
    1UNL     H3   28  -0.488  -0.193  -0.076
    1UNL     H4   29  -0.437   0.091  -0.159
    1UNL     H5   30  -0.121   0.010  -0.340
    1UNL     H6   31  -0.277   0.214  -0.037
    1UNL     H7   32  -0.183   0.134   0.182
    1UNL     H8   33  -0.054   0.221   0.092
    1UNL     H9   34   0.149   0.214   0.023
    1UNL    H10   35   0.428   0.275   0.043
    1UNL    H11   36   0.649   0.164   0.040
    1UNL    H12   37   0.655  -0.077   0.020
    1UNL    H13   38   0.447  -0.217   0.068
    1UNL    H14   39   0.180  -0.314   0.085
    1UNL    H15   40  -0.057  -0.329   0.056
    1UNL    H16   41  -0.215  -0.180  -0.080
    1UNL    H17   42  -0.279  -0.214   0.069
    1UNL    H18   43  -0.378   0.018   0.072
   0.00000   0.00000   0.00000   0.00000   0.00000   0.00000   0.00000   0.00000   0.00000
Generated with MDTraj, t= 44.0
 43
    1UNL     C1    1  -0.470  -0.151  -0.162
    1UNL     C2    2  -0.367  -0.030  -0.154
    1UNL     O1    3  -0.260  -0.062  -0.243
    1UNL     C3    4  -0.164   0.032  -0.244
    1UNL     C4    5  -0.144   0.133  -0.153
    1UNL     C5    6  -0.024   0.224  -0.173
    1UNL     O2    7   0.001   0.301  -0.083
    1UNL     O3    8   0.037   0.200  -0.281
    1UNL     C6    9  -0.222   0.136  -0.025
    1UNL     C7   10  -0.122   0.143   0.100
    1UNL     C8   11  -0.041   0.022   0.091
    1UNL     C9   12   0.099   0.028   0.097
    1UNL     N1   13   0.184   0.139   0.083
    1UNL    C10   14   0.318   0.090   0.070
    1UNL    C11   15   0.433   0.165   0.045
    1UNL    C12   16   0.550   0.086   0.039
    1UNL    C13   17   0.542  -0.054   0.041
    1UNL    C14   18   0.427  -0.123   0.053
    1UNL    C15   19   0.309  -0.050   0.058
    1UNL    C16   20   0.177  -0.091   0.065
    1UNL    C17   21   0.116  -0.208   0.032
    1UNL    C18   22  -0.021  -0.213   0.039
    1UNL     N2   23  -0.095  -0.103   0.072
    1UNL    C19   24  -0.242  -0.115   0.059
    1UNL    C20   25  -0.314   0.004  -0.015
    1UNL     H1   26  -0.555  -0.131  -0.231
    1UNL     H2   27  -0.531  -0.140  -0.070
    1UNL     H3   28  -0.432  -0.251  -0.168
    1UNL     H4   29  -0.406   0.057  -0.187
    1UNL     H5   30  -0.104   0.048  -0.335
    1UNL     H6   31  -0.283   0.222  -0.037
    1UNL     H7   32  -0.168   0.153   0.209
    1UNL     H8   33  -0.067   0.234   0.090
    1UNL     H9   34   0.154   0.227   0.046
    1UNL    H10   35   0.426   0.271   0.029
    1UNL    H11   36   0.643   0.127   0.019
    1UNL    H12   37   0.636  -0.116   0.041
    1UNL    H13   38   0.423  -0.230   0.047
    1UNL    H14   39   0.172  -0.297   0.002
    1UNL    H15   40  -0.075  -0.300   0.021
    1UNL    H16   41  -0.272  -0.212   0.024
    1UNL    H17   42  -0.288  -0.140   0.162
    1UNL    H18   43  -0.401   0.036   0.046
   0.00000   0.00000   0.00000   0.00000   0.00000   0.00000   0.00000   0.00000   0.00000
Generated with MDTraj, t= 45.0
 43
    1UNL     C1    1  -0.448  -0.160  -0.160
    1UNL     C2    2  -0.346  -0.039  -0.160
    1UNL     O1    3  -0.227  -0.081  -0.230
    1UNL     C3    4  -0.141   0.021  -0.232
    1UNL     C4    5  -0.138   0.139  -0.153
    1UNL     C5    6  -0.031   0.239  -0.170
    1UNL     O2    7  -0.002   0.314  -0.081
    1UNL     O3    8   0.028   0.227  -0.280
    1UNL     C6    9  -0.220   0.141  -0.026
    1UNL     C7   10  -0.121   0.146   0.094
    1UNL     C8   11  -0.041   0.024   0.086
    1UNL     C9   12   0.097   0.024   0.088
    1UNL     N1   13   0.177   0.136   0.080
    1UNL    C10   14   0.303   0.084   0.063
    1UNL    C11   15   0.423   0.155   0.055
    1UNL    C12   16   0.541   0.081   0.049
    1UNL    C13   17   0.540  -0.059   0.017
    1UNL    C14   18   0.424  -0.123   0.016
    1UNL    C15   19   0.305  -0.058   0.053
    1UNL    C16   20   0.170  -0.095   0.063
    1UNL    C17   21   0.105  -0.220   0.056
    1UNL    C18   22  -0.033  -0.220   0.052
    1UNL     N2   23  -0.103  -0.098   0.075
    1UNL    C19   24  -0.252  -0.097   0.070
    1UNL    C20   25  -0.311   0.014  -0.017
    1UNL     H1   26  -0.464  -0.182  -0.269
    1UNL     H2   27  -0.548  -0.133  -0.131
    1UNL     H3   28  -0.408  -0.247  -0.105
    1UNL     H4   29  -0.381   0.039  -0.214
    1UNL     H5   30  -0.069   0.032  -0.315
    1UNL     H6   31  -0.290   0.220  -0.039
    1UNL     H7   32  -0.187   0.153   0.192
    1UNL     H8   33  -0.062   0.233   0.103
    1UNL     H9   34   0.142   0.223   0.030
    1UNL    H10   35   0.426   0.262   0.076
    1UNL    H11   36   0.639   0.140   0.046
    1UNL    H12   37   0.626  -0.105  -0.025
    1UNL    H13   38   0.430  -0.228  -0.009
    1UNL    H14   39   0.158  -0.311   0.036
    1UNL    H15   40  -0.089  -0.317   0.041
    1UNL    H16   41  -0.305  -0.193   0.055
    1UNL    H17   42  -0.289  -0.085   0.178
    1UNL    H18   43  -0.401   0.056   0.034
   0.00000   0.00000   0.00000   0.00000   0.00000   0.00000   0.00000   0.00000   0.00000
Generated with MDTraj, t= 46.0
 43
    1UNL     C1    1  -0.447  -0.146  -0.177
    1UNL     C2    2  -0.334  -0.040  -0.176
    1UNL     O1    3  -0.213  -0.074  -0.244
    1UNL     C3    4  -0.117   0.014  -0.224
    1UNL     C4    5  -0.113   0.118  -0.141
    1UNL     C5    6  -0.039   0.244  -0.168
    1UNL     O2    7  -0.032   0.328  -0.083
    1UNL     O3    8   0.031   0.242  -0.268
    1UNL     C6    9  -0.215   0.134  -0.028
    1UNL     C7   10  -0.133   0.143   0.104
    1UNL     C8   11  -0.045   0.021   0.114
    1UNL     C9   12   0.094   0.027   0.098
    1UNL     N1   13   0.179   0.139   0.077
    1UNL    C10   14   0.303   0.090   0.056
    1UNL    C11   15   0.426   0.153   0.027
    1UNL    C12   16   0.534   0.075   0.004
    1UNL    C13   17   0.537  -0.063   0.015
    1UNL    C14   18   0.410  -0.133   0.025
    1UNL    C15   19   0.299  -0.054   0.059
    1UNL    C16   20   0.166  -0.095   0.076
    1UNL    C17   21   0.103  -0.226   0.069
    1UNL    C18   22  -0.035  -0.220   0.078
    1UNL     N2   23  -0.103  -0.098   0.087
    1UNL    C19   24  -0.248  -0.100   0.064
    1UNL    C20   25  -0.309   0.006  -0.025
    1UNL     H1   26  -0.470  -0.163  -0.286
    1UNL     H2   27  -0.540  -0.109  -0.144
    1UNL     H3   28  -0.411  -0.239  -0.127
    1UNL     H4   29  -0.364   0.040  -0.232
    1UNL     H5   30  -0.038  -0.005  -0.294
    1UNL     H6   31  -0.273   0.219  -0.053
    1UNL     H7   32  -0.193   0.150   0.198
    1UNL     H8   33  -0.081   0.238   0.111
    1UNL     H9   34   0.139   0.231   0.043
    1UNL    H10   35   0.434   0.257   0.041
    1UNL    H11   36   0.626   0.118  -0.010
    1UNL    H12   37   0.631  -0.111  -0.014
    1UNL    H13   38   0.402  -0.239   0.020
    1UNL    H14   39   0.155  -0.318   0.046
    1UNL    H15   40  -0.091  -0.303   0.052
    1UNL    H16   41  -0.280  -0.192   0.011
    1UNL    H17   42  -0.306  -0.115   0.160
    1UNL    H18   43  -0.403   0.046   0.021
   0.00000   0.00000   0.00000   0.00000   0.00000   0.00000   0.00000   0.00000   0.00000
Generated with MDTraj, t= 47.0
 43
    1UNL     C1    1  -0.437  -0.146  -0.198
    1UNL     C2    2  -0.337  -0.036  -0.176
    1UNL     O1    3  -0.209  -0.062  -0.248
    1UNL     C3    4  -0.127   0.036  -0.231
    1UNL     C4    5  -0.131   0.147  -0.146
    1UNL     C5    6  -0.024   0.244  -0.155
    1UNL     O2    7   0.000   0.323  -0.068
    1UNL     O3    8   0.053   0.220  -0.249
    1UNL     C6    9  -0.221   0.136  -0.024
    1UNL     C7   10  -0.136   0.140   0.099
    1UNL     C8   11  -0.049   0.016   0.098
    1UNL     C9   12   0.089   0.023   0.095
    1UNL     N1   13   0.173   0.134   0.070
    1UNL    C10   14   0.298   0.087   0.054
    1UNL    C11   15   0.405   0.148  -0.006
    1UNL    C12   16   0.513   0.080  -0.042
    1UNL    C13   17   0.529  -0.054  -0.008
    1UNL    C14   18   0.427  -0.123   0.063
    1UNL    C15   19   0.307  -0.049   0.079
    1UNL    C16   20   0.167  -0.095   0.099
    1UNL    C17   21   0.104  -0.222   0.099
    1UNL    C18   22  -0.032  -0.225   0.100
    1UNL     N2   23  -0.107  -0.110   0.082
    1UNL    C19   24  -0.252  -0.117   0.056
    1UNL    C20   25  -0.312   0.003  -0.024
    1UNL     H1   26  -0.461  -0.166  -0.305
    1UNL     H2   27  -0.538  -0.123  -0.166
    1UNL     H3   28  -0.404  -0.243  -0.156
    1UNL     H4   29  -0.370   0.046  -0.227
    1UNL     H5   30  -0.046   0.025  -0.296
    1UNL     H6   31  -0.287   0.218  -0.033
    1UNL     H7   32  -0.195   0.144   0.184
    1UNL     H8   33  -0.076   0.233   0.108
    1UNL     H9   34   0.128   0.220   0.041
    1UNL    H10   35   0.392   0.255  -0.024
    1UNL    H11   36   0.588   0.142  -0.099
    1UNL    H12   37   0.629  -0.096  -0.013
    1UNL    H13   38   0.443  -0.231   0.075
    1UNL    H14   39   0.162  -0.313   0.095
    1UNL    H15   40  -0.089  -0.321   0.088
    1UNL    H16   41  -0.289  -0.212   0.008
    1UNL    H17   42  -0.299  -0.129   0.157
    1UNL    H18   43  -0.414   0.032   0.013
   0.00000   0.00000   0.00000   0.00000   0.00000   0.00000   0.00000   0.00000   0.00000
Generated with MDTraj, t= 48.0
 43
    1UNL     C1    1  -0.443  -0.146  -0.179
    1UNL     C2    2  -0.349  -0.031  -0.177
    1UNL     O1    3  -0.240  -0.049  -0.274
    1UNL     C3    4  -0.131   0.033  -0.255
    1UNL     C4    5  -0.118   0.131  -0.154
    1UNL     C5    6  -0.004   0.229  -0.145
    1UNL     O2    7  -0.020   0.317  -0.058
    1UNL     O3    8   0.090   0.216  -0.230
    1UNL     C6    9  -0.215   0.127  -0.037
    1UNL     C7   10  -0.140   0.142   0.094
    1UNL     C8   11  -0.053   0.024   0.116
    1UNL     C9   12   0.088   0.031   0.115
    1UNL     N1   13   0.167   0.141   0.082
    1UNL    C10   14   0.287   0.094   0.037
    1UNL    C11   15   0.409   0.159  -0.002
    1UNL    C12   16   0.516   0.082  -0.030
    1UNL    C13   17   0.522  -0.060  -0.016
    1UNL    C14   18   0.412  -0.125   0.038
    1UNL    C15   19   0.300  -0.050   0.059
    1UNL    C16   20   0.168  -0.088   0.107
    1UNL    C17   21   0.109  -0.218   0.109
    1UNL    C18   22  -0.029  -0.220   0.107
    1UNL     N2   23  -0.103  -0.103   0.109
    1UNL    C19   24  -0.236  -0.128   0.040
    1UNL    C20   25  -0.298  -0.010  -0.038
    1UNL     H1   26  -0.511  -0.149  -0.265
    1UNL     H2   27  -0.520  -0.134  -0.096
    1UNL     H3   28  -0.392  -0.241  -0.174
    1UNL     H4   29  -0.388   0.058  -0.213
    1UNL     H5   30  -0.070   0.048  -0.346
    1UNL     H6   31  -0.278   0.211  -0.052
    1UNL     H7   32  -0.203   0.152   0.171
    1UNL     H8   33  -0.075   0.233   0.099
    1UNL     H9   34   0.139   0.229   0.045
    1UNL    H10   35   0.400   0.258  -0.044
    1UNL    H11   36   0.607   0.129  -0.052
    1UNL    H12   37   0.615  -0.112  -0.034
    1UNL    H13   38   0.405  -0.230   0.060
    1UNL    H14   39   0.168  -0.306   0.101
    1UNL    H15   40  -0.076  -0.314   0.105
    1UNL    H16   41  -0.221  -0.217  -0.030
    1UNL    H17   42  -0.313  -0.172   0.108
    1UNL    H18   43  -0.392   0.022   0.014
   0.00000   0.00000   0.00000   0.00000   0.00000   0.00000   0.00000   0.00000   0.00000
Generated with MDTraj, t= 49.0
 43
    1UNL     C1    1  -0.471  -0.126  -0.197
    1UNL     C2    2  -0.355  -0.025  -0.171
    1UNL     O1    3  -0.242  -0.062  -0.254
    1UNL     C3    4  -0.141   0.033  -0.242
    1UNL     C4    5  -0.136   0.131  -0.149
    1UNL     C5    6  -0.013   0.225  -0.161
    1UNL     O2    7   0.002   0.322  -0.083
    1UNL     O3    8   0.071   0.179  -0.246
    1UNL     C6    9  -0.223   0.134  -0.028
    1UNL     C7   10  -0.138   0.135   0.097
    1UNL     C8   11  -0.045   0.016   0.106
    1UNL     C9   12   0.094   0.031   0.122
    1UNL     N1   13   0.171   0.137   0.084
    1UNL    C10   14   0.302   0.091   0.065
    1UNL    C11   15   0.417   0.165   0.024
    1UNL    C12   16   0.527   0.094  -0.022
    1UNL    C13   17   0.527  -0.045  -0.016
    1UNL    C14   18   0.421  -0.113   0.028
    1UNL    C15   19   0.309  -0.047   0.074
    1UNL    C16   20   0.174  -0.092   0.120
    1UNL    C17   21   0.113  -0.220   0.108
    1UNL    C18   22  -0.023  -0.226   0.081
    1UNL     N2   23  -0.096  -0.108   0.079
    1UNL    C19   24  -0.238  -0.124   0.034
    1UNL    C20   25  -0.312  -0.002  -0.024
    1UNL     H1   26  -0.489  -0.152  -0.301
    1UNL     H2   27  -0.570  -0.076  -0.164
    1UNL     H3   28  -0.445  -0.213  -0.141
    1UNL     H4   29  -0.386   0.066  -0.209
    1UNL     H5   30  -0.046   0.019  -0.305
    1UNL     H6   31  -0.279   0.225  -0.026
    1UNL     H7   32  -0.195   0.145   0.184
    1UNL     H8   33  -0.071   0.224   0.097
    1UNL     H9   34   0.128   0.214   0.030
    1UNL    H10   35   0.386   0.266   0.001
    1UNL    H11   36   0.617   0.140  -0.066
    1UNL    H12   37   0.613  -0.104  -0.045
    1UNL    H13   38   0.426  -0.219   0.038
    1UNL    H14   39   0.173  -0.311   0.111
    1UNL    H15   40  -0.074  -0.324   0.091
    1UNL    H16   41  -0.246  -0.199  -0.050
    1UNL    H17   42  -0.294  -0.177   0.116
    1UNL    H18   43  -0.402   0.026   0.033
   0.00000   0.00000   0.00000   0.00000   0.00000   0.00000   0.00000   0.00000   0.00000
Generated with MDTraj, t= 50.0
 43
    1UNL     C1    1  -0.491  -0.112  -0.160
    1UNL     C2    2  -0.373  -0.018  -0.165
    1UNL     O1    3  -0.265  -0.065  -0.253
    1UNL     C3    4  -0.150   0.004  -0.240
    1UNL     C4    5  -0.115   0.105  -0.149
    1UNL     C5    6  -0.006   0.202  -0.168
    1UNL     O2    7   0.020   0.282  -0.078
    1UNL     O3    8   0.063   0.192  -0.272
    1UNL     C6    9  -0.207   0.125  -0.033
    1UNL     C7   10  -0.130   0.140   0.102
    1UNL     C8   11  -0.048   0.016   0.109
    1UNL     C9   12   0.092   0.024   0.100
    1UNL     N1   13   0.172   0.139   0.087
    1UNL    C10   14   0.308   0.093   0.070
    1UNL    C11   15   0.414   0.173   0.031
    1UNL    C12   16   0.540   0.111   0.014
    1UNL    C13   17   0.544  -0.030   0.022
    1UNL    C14   18   0.434  -0.108   0.050
    1UNL    C15   19   0.315  -0.045   0.077
    1UNL    C16   20   0.173  -0.092   0.085
    1UNL    C17   21   0.113  -0.213   0.053
    1UNL    C18   22  -0.026  -0.216   0.050
    1UNL     N2   23  -0.103  -0.104   0.070
    1UNL    C19   24  -0.253  -0.116   0.040
    1UNL    C20   25  -0.319   0.010  -0.021
    1UNL     H1   26  -0.552  -0.124  -0.250
    1UNL     H2   27  -0.563  -0.067  -0.085
    1UNL     H3   28  -0.448  -0.205  -0.128
    1UNL     H4   29  -0.415   0.070  -0.207
    1UNL     H5   30  -0.064  -0.034  -0.293
    1UNL     H6   31  -0.261   0.217  -0.042
    1UNL     H7   32  -0.197   0.138   0.189
    1UNL     H8   33  -0.061   0.224   0.106
    1UNL     H9   34   0.146   0.228   0.037
    1UNL    H10   35   0.412   0.280   0.023
    1UNL    H11   36   0.613   0.169  -0.036
    1UNL    H12   37   0.638  -0.083   0.018
    1UNL    H13   38   0.442  -0.215   0.065
    1UNL    H14   39   0.177  -0.298   0.030
    1UNL    H15   40  -0.072  -0.309   0.025
    1UNL    H16   41  -0.257  -0.194  -0.040
    1UNL    H17   42  -0.318  -0.160   0.122
    1UNL    H18   43  -0.398   0.057   0.038
   0.00000   0.00000   0.00000   0.00000   0.00000   0.00000   0.00000   0.00000   0.00000
Generated with MDTraj, t= 51.0
 43
    1UNL     C1    1  -0.502  -0.119  -0.141
    1UNL     C2    2  -0.387  -0.025  -0.148
    1UNL     O1    3  -0.286  -0.059  -0.249
    1UNL     C3    4  -0.180   0.025  -0.252
    1UNL     C4    5  -0.140   0.126  -0.161
    1UNL     C5    6  -0.017   0.202  -0.185
    1UNL     O2    7   0.003   0.305  -0.118
    1UNL     O3    8   0.048   0.159  -0.280
    1UNL     C6    9  -0.218   0.130  -0.032
    1UNL     C7   10  -0.122   0.142   0.091
    1UNL     C8   11  -0.034   0.016   0.078
    1UNL     C9   12   0.105   0.030   0.069
    1UNL     N1   13   0.184   0.143   0.089
    1UNL    C10   14   0.319   0.102   0.087
    1UNL    C11   15   0.437   0.165   0.091
    1UNL    C12   16   0.557   0.097   0.074
    1UNL    C13   17   0.557  -0.036   0.042
    1UNL    C14   18   0.437  -0.111   0.034
    1UNL    C15   19   0.318  -0.043   0.077
    1UNL    C16   20   0.180  -0.088   0.061
    1UNL    C17   21   0.123  -0.217   0.039
    1UNL    C18   22  -0.015  -0.218   0.052
    1UNL     N2   23  -0.094  -0.105   0.071
    1UNL    C19   24  -0.242  -0.117   0.046
    1UNL    C20   25  -0.314   0.003  -0.013
    1UNL     H1   26  -0.554  -0.140  -0.237
    1UNL     H2   27  -0.586  -0.084  -0.081
    1UNL     H3   28  -0.464  -0.218  -0.108
    1UNL     H4   29  -0.437   0.064  -0.187
    1UNL     H5   30  -0.127   0.007  -0.339
    1UNL     H6   31  -0.289   0.211  -0.030
    1UNL     H7   32  -0.177   0.134   0.194
    1UNL     H8   33  -0.064   0.230   0.074
    1UNL     H9   34   0.165   0.228   0.034
    1UNL    H10   35   0.439   0.269   0.122
    1UNL    H11   36   0.650   0.155   0.075
    1UNL    H12   37   0.649  -0.078   0.005
    1UNL    H13   38   0.430  -0.218   0.028
    1UNL    H14   39   0.175  -0.306   0.011
    1UNL    H15   40  -0.061  -0.310   0.016
    1UNL    H16   41  -0.259  -0.207  -0.018
    1UNL    H17   42  -0.291  -0.149   0.144
    1UNL    H18   43  -0.387   0.038   0.060
   0.00000   0.00000   0.00000   0.00000   0.00000   0.00000   0.00000   0.00000   0.00000
Generated with MDTraj, t= 52.0
 43
    1UNL     C1    1  -0.503  -0.128  -0.108
    1UNL     C2    2  -0.397  -0.025  -0.133
    1UNL     O1    3  -0.317  -0.055  -0.245
    1UNL     C3    4  -0.209   0.031  -0.263
    1UNL     C4    5  -0.166   0.127  -0.173
    1UNL     C5    6  -0.037   0.204  -0.200
    1UNL     O2    7  -0.015   0.307  -0.130
    1UNL     O3    8   0.031   0.164  -0.295
    1UNL     C6    9  -0.230   0.138  -0.037
    1UNL     C7   10  -0.120   0.142   0.074
    1UNL     C8   11  -0.025   0.022   0.070
    1UNL     C9   12   0.117   0.034   0.086
    1UNL     N1   13   0.202   0.144   0.101
    1UNL    C10   14   0.334   0.097   0.090
    1UNL    C11   15   0.453   0.160   0.098
    1UNL    C12   16   0.568   0.087   0.097
    1UNL    C13   17   0.563  -0.053   0.087
    1UNL    C14   18   0.446  -0.120   0.064
    1UNL    C15   19   0.327  -0.042   0.069
    1UNL    C16   20   0.190  -0.081   0.055
    1UNL    C17   21   0.133  -0.206   0.031
    1UNL    C18   22  -0.002  -0.216   0.029
    1UNL     N2   23  -0.080  -0.101   0.043
    1UNL    C19   24  -0.229  -0.121   0.015
    1UNL    C20   25  -0.312   0.002  -0.007
    1UNL     H1   26  -0.562  -0.151  -0.200
    1UNL     H2   27  -0.576  -0.107  -0.035
    1UNL     H3   28  -0.463  -0.231  -0.088
    1UNL     H4   29  -0.454   0.062  -0.175
    1UNL     H5   30  -0.159   0.008  -0.359
    1UNL     H6   31  -0.295   0.225  -0.031
    1UNL     H7   32  -0.167   0.131   0.183
    1UNL     H8   33  -0.060   0.229   0.060
    1UNL     H9   34   0.168   0.242   0.090
    1UNL    H10   35   0.458   0.270   0.103
    1UNL    H11   36   0.660   0.146   0.102
    1UNL    H12   37   0.656  -0.104   0.099
    1UNL    H13   38   0.436  -0.225   0.039
    1UNL    H14   39   0.199  -0.292   0.020
    1UNL    H15   40  -0.063  -0.301   0.005
    1UNL    H16   41  -0.250  -0.197  -0.064
    1UNL    H17   42  -0.260  -0.174   0.111
    1UNL    H18   43  -0.365   0.017   0.084
   0.00000   0.00000   0.00000   0.00000   0.00000   0.00000   0.00000   0.00000   0.00000
Generated with MDTraj, t= 53.0
 43
    1UNL     C1    1  -0.520  -0.116  -0.090
    1UNL     C2    2  -0.407  -0.009  -0.120
    1UNL     O1    3  -0.347  -0.033  -0.245
    1UNL     C3    4  -0.230   0.032  -0.263
    1UNL     C4    5  -0.169   0.121  -0.176
    1UNL     C5    6  -0.058   0.202  -0.224
    1UNL     O2    7  -0.014   0.285  -0.142
    1UNL     O3    8  -0.018   0.196  -0.342
    1UNL     C6    9  -0.220   0.134  -0.040
    1UNL     C7   10  -0.107   0.132   0.064
    1UNL     C8   11  -0.014   0.017   0.052
    1UNL     C9   12   0.122   0.021   0.081
    1UNL     N1   13   0.200   0.134   0.101
    1UNL    C10   14   0.333   0.093   0.100
    1UNL    C11   15   0.454   0.162   0.114
    1UNL    C12   16   0.577   0.097   0.119
    1UNL    C13   17   0.583  -0.044   0.109
    1UNL    C14   18   0.468  -0.115   0.099
    1UNL    C15   19   0.341  -0.050   0.085
    1UNL    C16   20   0.209  -0.094   0.071
    1UNL    C17   21   0.144  -0.222   0.046
    1UNL    C18   22   0.011  -0.217   0.012
    1UNL     N2   23  -0.070  -0.103   0.011
    1UNL    C19   24  -0.222  -0.126   0.011
    1UNL    C20   25  -0.306   0.006  -0.006
    1UNL     H1   26  -0.606  -0.112  -0.162
    1UNL     H2   27  -0.555  -0.114   0.009
    1UNL     H3   28  -0.483  -0.221  -0.103
    1UNL     H4   29  -0.469   0.084  -0.152
    1UNL     H5   30  -0.169   0.006  -0.355
    1UNL     H6   31  -0.280   0.223  -0.026
    1UNL     H7   32  -0.155   0.121   0.170
    1UNL     H8   33  -0.042   0.218   0.049
    1UNL     H9   34   0.173   0.230   0.073
    1UNL    H10   35   0.453   0.265   0.109
    1UNL    H11   36   0.666   0.148   0.140
    1UNL    H12   37   0.672  -0.100   0.135
    1UNL    H13   38   0.474  -0.220   0.074
    1UNL    H14   39   0.199  -0.313   0.043
    1UNL    H15   40  -0.037  -0.312  -0.011
    1UNL    H16   41  -0.237  -0.189  -0.079
    1UNL    H17   42  -0.260  -0.189   0.098
    1UNL    H18   43  -0.352   0.026   0.088
   0.00000   0.00000   0.00000   0.00000   0.00000   0.00000   0.00000   0.00000   0.00000
Generated with MDTraj, t= 54.0
 43
    1UNL     C1    1  -0.517  -0.111  -0.077
    1UNL     C2    2  -0.405  -0.002  -0.104
    1UNL     O1    3  -0.359  -0.021  -0.240
    1UNL     C3    4  -0.257   0.060  -0.266
    1UNL     C4    5  -0.181   0.136  -0.182
    1UNL     C5    6  -0.076   0.208  -0.247
    1UNL     O2    7   0.009   0.273  -0.181
    1UNL     O3    8  -0.080   0.215  -0.371
    1UNL     C6    9  -0.211   0.122  -0.039
    1UNL     C7   10  -0.093   0.133   0.055
    1UNL     C8   11  -0.008   0.009   0.052
    1UNL     C9   12   0.126   0.023   0.072
    1UNL     N1   13   0.210   0.136   0.098
    1UNL    C10   14   0.338   0.089   0.101
    1UNL    C11   15   0.453   0.160   0.141
    1UNL    C12   16   0.575   0.092   0.148
    1UNL    C13   17   0.572  -0.046   0.125
    1UNL    C14   18   0.461  -0.117   0.102
    1UNL    C15   19   0.342  -0.050   0.087
    1UNL    C16   20   0.213  -0.095   0.074
    1UNL    C17   21   0.157  -0.229   0.065
    1UNL    C18   22   0.026  -0.236   0.034
    1UNL     N2   23  -0.058  -0.120   0.030
    1UNL    C19   24  -0.197  -0.131  -0.029
    1UNL    C20   25  -0.294  -0.006  -0.012
    1UNL     H1   26  -0.577  -0.133  -0.166
    1UNL     H2   27  -0.575  -0.092   0.011
    1UNL     H3   28  -0.465  -0.204  -0.050
    1UNL     H4   29  -0.470   0.097  -0.092
    1UNL     H5   30  -0.222   0.052  -0.367
    1UNL     H6   31  -0.279   0.204  -0.009
    1UNL     H7   32  -0.138   0.127   0.160
    1UNL     H8   33  -0.035   0.229   0.028
    1UNL     H9   34   0.187   0.233   0.068
    1UNL    H10   35   0.448   0.271   0.157
    1UNL    H11   36   0.665   0.132   0.205
    1UNL    H12   37   0.669  -0.094   0.133
    1UNL    H13   38   0.463  -0.224   0.095
    1UNL    H14   39   0.229  -0.309   0.048
    1UNL    H15   40  -0.028  -0.326   0.018
    1UNL    H16   41  -0.189  -0.154  -0.137
    1UNL    H17   42  -0.249  -0.220   0.019
    1UNL    H18   43  -0.331   0.004   0.088
   0.00000   0.00000   0.00000   0.00000   0.00000   0.00000   0.00000   0.00000   0.00000
Generated with MDTraj, t= 55.0
 43
    1UNL     C1    1  -0.491  -0.144  -0.053
    1UNL     C2    2  -0.409  -0.018  -0.095
    1UNL     O1    3  -0.392  -0.017  -0.241
    1UNL     C3    4  -0.294   0.064  -0.284
    1UNL     C4    5  -0.206   0.134  -0.206
    1UNL     C5    6  -0.098   0.219  -0.267
    1UNL     O2    7  -0.019   0.277  -0.183
    1UNL     O3    8  -0.091   0.235  -0.389
    1UNL     C6    9  -0.209   0.133  -0.053
    1UNL     C7   10  -0.078   0.138   0.038
    1UNL     C8   11   0.002   0.016   0.041
    1UNL     C9   12   0.137   0.020   0.077
    1UNL     N1   13   0.221   0.133   0.100
    1UNL    C10   14   0.347   0.085   0.134
    1UNL    C11   15   0.472   0.147   0.144
    1UNL    C12   16   0.586   0.075   0.152
    1UNL    C13   17   0.585  -0.063   0.152
    1UNL    C14   18   0.466  -0.128   0.138
    1UNL    C15   19   0.347  -0.054   0.118
    1UNL    C16   20   0.220  -0.097   0.080
    1UNL    C17   21   0.162  -0.221   0.039
    1UNL    C18   22   0.033  -0.217   0.022
    1UNL     N2   23  -0.053  -0.108   0.017
    1UNL    C19   24  -0.195  -0.121  -0.026
    1UNL    C20   25  -0.290   0.002  -0.012
    1UNL     H1   26  -0.592  -0.147  -0.089
    1UNL     H2   27  -0.486  -0.162   0.058
    1UNL     H3   28  -0.447  -0.235  -0.090
    1UNL     H4   29  -0.485   0.069  -0.067
    1UNL     H5   30  -0.281   0.058  -0.389
    1UNL     H6   31  -0.263   0.226  -0.028
    1UNL     H7   32  -0.112   0.166   0.140
    1UNL     H8   33  -0.010   0.220  -0.012
    1UNL     H9   34   0.189   0.230   0.084
    1UNL    H10   35   0.470   0.250   0.169
    1UNL    H11   36   0.674   0.129   0.147
    1UNL    H12   37   0.677  -0.120   0.154
    1UNL    H13   38   0.460  -0.236   0.137
    1UNL    H14   39   0.226  -0.308   0.034
    1UNL    H15   40  -0.022  -0.310   0.002
    1UNL    H16   41  -0.190  -0.152  -0.132
    1UNL    H17   42  -0.238  -0.207   0.032
    1UNL    H18   43  -0.316   0.021   0.089
   0.00000   0.00000   0.00000   0.00000   0.00000   0.00000   0.00000   0.00000   0.00000
Generated with MDTraj, t= 56.0
 43
    1UNL     C1    1  -0.490  -0.140  -0.045
    1UNL     C2    2  -0.409  -0.018  -0.086
    1UNL     O1    3  -0.388  -0.027  -0.226
    1UNL     C3    4  -0.296   0.062  -0.270
    1UNL     C4    5  -0.214   0.150  -0.194
    1UNL     C5    6  -0.120   0.228  -0.276
    1UNL     O2    7  -0.052   0.314  -0.211
    1UNL     O3    8  -0.122   0.210  -0.400
    1UNL     C6    9  -0.211   0.142  -0.040
    1UNL     C7   10  -0.066   0.142   0.021
    1UNL     C8   11   0.019   0.015   0.028
    1UNL     C9   12   0.151   0.019   0.062
    1UNL     N1   13   0.234   0.128   0.092
    1UNL    C10   14   0.355   0.080   0.136
    1UNL    C11   15   0.476   0.141   0.158
    1UNL    C12   16   0.588   0.072   0.190
    1UNL    C13   17   0.581  -0.067   0.177
    1UNL    C14   18   0.465  -0.136   0.145
    1UNL    C15   19   0.348  -0.066   0.125
    1UNL    C16   20   0.219  -0.101   0.080
    1UNL    C17   21   0.159  -0.226   0.049
    1UNL    C18   22   0.033  -0.222   0.010
    1UNL     N2   23  -0.044  -0.104  -0.001
    1UNL    C19   24  -0.181  -0.109  -0.060
    1UNL    C20   25  -0.275   0.000  -0.005
    1UNL     H1   26  -0.584  -0.150  -0.096
    1UNL     H2   27  -0.501  -0.157   0.067
    1UNL     H3   28  -0.441  -0.230  -0.073
    1UNL     H4   29  -0.480   0.077  -0.081
    1UNL     H5   30  -0.283   0.077  -0.377
    1UNL     H6   31  -0.273   0.226  -0.002
    1UNL     H7   32  -0.069   0.189   0.120
    1UNL     H8   33  -0.005   0.213  -0.050
    1UNL     H9   34   0.225   0.228   0.078
    1UNL    H10   35   0.473   0.248   0.173
    1UNL    H11   36   0.685   0.126   0.204
    1UNL    H12   37   0.675  -0.118   0.163
    1UNL    H13   38   0.463  -0.241   0.129
    1UNL    H14   39   0.209  -0.314   0.090
    1UNL    H15   40  -0.019  -0.311  -0.020
    1UNL    H16   41  -0.166  -0.100  -0.170
    1UNL    H17   42  -0.224  -0.210  -0.048
    1UNL    H18   43  -0.289  -0.003   0.101
   0.00000   0.00000   0.00000   0.00000   0.00000   0.00000   0.00000   0.00000   0.00000
Generated with MDTraj, t= 57.0
 43
    1UNL     C1    1  -0.493  -0.117  -0.018
    1UNL     C2    2  -0.403  -0.008  -0.066
    1UNL     O1    3  -0.400  -0.014  -0.206
    1UNL     C3    4  -0.305   0.061  -0.276
    1UNL     C4    5  -0.208   0.139  -0.218
    1UNL     C5    6  -0.135   0.242  -0.286
    1UNL     O2    7  -0.096   0.335  -0.212
    1UNL     O3    8  -0.135   0.237  -0.407
    1UNL     C6    9  -0.195   0.124  -0.065
    1UNL     C7   10  -0.047   0.132  -0.025
    1UNL     C8   11   0.024   0.003   0.008
    1UNL     C9   12   0.156   0.012   0.053
    1UNL     N1   13   0.229   0.129   0.091
    1UNL    C10   14   0.358   0.082   0.126
    1UNL    C11   15   0.476   0.142   0.175
    1UNL    C12   16   0.581   0.063   0.222
    1UNL    C13   17   0.574  -0.074   0.210
    1UNL    C14   18   0.470  -0.135   0.145
    1UNL    C15   19   0.356  -0.057   0.109
    1UNL    C16   20   0.224  -0.104   0.085
    1UNL    C17   21   0.171  -0.231   0.058
    1UNL    C18   22   0.044  -0.235   0.008
    1UNL     N2   23  -0.034  -0.118  -0.002
    1UNL    C19   24  -0.178  -0.130  -0.054
    1UNL    C20   25  -0.256  -0.006  -0.013
    1UNL     H1   26  -0.578  -0.122  -0.085
    1UNL     H2   27  -0.519  -0.115   0.091
    1UNL     H3   28  -0.447  -0.214  -0.032
    1UNL     H4   29  -0.465   0.090  -0.051
    1UNL     H5   30  -0.323   0.080  -0.385
    1UNL     H6   31  -0.257   0.203  -0.019
    1UNL     H7   32  -0.024   0.194   0.063
    1UNL     H8   33   0.008   0.181  -0.105
    1UNL     H9   34   0.199   0.224   0.083
    1UNL    H10   35   0.481   0.252   0.178
    1UNL    H11   36   0.657   0.107   0.280
    1UNL    H12   37   0.663  -0.131   0.233
    1UNL    H13   38   0.465  -0.241   0.125
    1UNL    H14   39   0.231  -0.316   0.081
    1UNL    H15   40   0.003  -0.328  -0.025
    1UNL    H16   41  -0.184  -0.146  -0.164
    1UNL    H17   42  -0.225  -0.221  -0.012
    1UNL    H18   43  -0.260   0.007   0.094
   0.00000   0.00000   0.00000   0.00000   0.00000   0.00000   0.00000   0.00000   0.00000
Generated with MDTraj, t= 58.0
 43
    1UNL     C1    1  -0.478  -0.123  -0.002
    1UNL     C2    2  -0.393  -0.016  -0.064
    1UNL     O1    3  -0.380  -0.033  -0.208
    1UNL     C3    4  -0.312   0.063  -0.267
    1UNL     C4    5  -0.224   0.147  -0.208
    1UNL     C5    6  -0.165   0.255  -0.296
    1UNL     O2    7  -0.090   0.335  -0.239
    1UNL     O3    8  -0.188   0.259  -0.416
    1UNL     C6    9  -0.193   0.137  -0.060
    1UNL     C7   10  -0.043   0.134  -0.032
    1UNL     C8   11   0.032   0.005  -0.009
    1UNL     C9   12   0.162   0.013   0.045
    1UNL     N1   13   0.242   0.123   0.083
    1UNL    C10   14   0.362   0.067   0.134
    1UNL    C11   15   0.475   0.136   0.176
    1UNL    C12   16   0.580   0.063   0.234
    1UNL    C13   17   0.579  -0.079   0.234
    1UNL    C14   18   0.468  -0.143   0.186
    1UNL    C15   19   0.361  -0.072   0.126
    1UNL    C16   20   0.231  -0.111   0.076
    1UNL    C17   21   0.169  -0.234   0.051
    1UNL    C18   22   0.037  -0.227   0.003
    1UNL     N2   23  -0.026  -0.113  -0.032
    1UNL    C19   24  -0.174  -0.115  -0.060
    1UNL    C20   25  -0.253   0.002  -0.007
    1UNL     H1   26  -0.572  -0.120  -0.059
    1UNL     H2   27  -0.484  -0.115   0.106
    1UNL     H3   28  -0.435  -0.223  -0.021
    1UNL     H4   29  -0.456   0.080  -0.058
    1UNL     H5   30  -0.321   0.044  -0.376
    1UNL     H6   31  -0.248   0.220  -0.010
    1UNL     H7   32  -0.033   0.195   0.059
    1UNL     H8   33   0.010   0.189  -0.104
    1UNL     H9   34   0.221   0.218   0.056
    1UNL    H10   35   0.490   0.237   0.168
    1UNL    H11   36   0.660   0.111   0.292
    1UNL    H12   37   0.650  -0.137   0.289
    1UNL    H13   38   0.479  -0.249   0.167
    1UNL    H14   39   0.208  -0.333   0.067
    1UNL    H15   40  -0.020  -0.317   0.022
    1UNL    H16   41  -0.180  -0.127  -0.171
    1UNL    H17   42  -0.219  -0.210  -0.025
    1UNL    H18   43  -0.244   0.003   0.101
   0.00000   0.00000   0.00000   0.00000   0.00000   0.00000   0.00000   0.00000   0.00000
Generated with MDTraj, t= 59.0
 43
    1UNL     C1    1  -0.463  -0.139   0.003
    1UNL     C2    2  -0.392  -0.024  -0.064
    1UNL     O1    3  -0.401  -0.027  -0.204
    1UNL     C3    4  -0.339   0.067  -0.265
    1UNL     C4    5  -0.243   0.155  -0.213
    1UNL     C5    6  -0.181   0.259  -0.300
    1UNL     O2    7  -0.078   0.309  -0.254
    1UNL     O3    8  -0.226   0.292  -0.410
    1UNL     C6    9  -0.190   0.132  -0.077
    1UNL     C7   10  -0.036   0.142  -0.050
    1UNL     C8   11   0.037   0.010  -0.015
    1UNL     C9   12   0.172   0.014   0.043
    1UNL     N1   13   0.259   0.121   0.082
    1UNL    C10   14   0.374   0.070   0.138
    1UNL    C11   15   0.491   0.131   0.186
    1UNL    C12   16   0.594   0.053   0.241
    1UNL    C13   17   0.573  -0.086   0.247
    1UNL    C14   18   0.455  -0.145   0.208
    1UNL    C15   19   0.362  -0.071   0.140
    1UNL    C16   20   0.235  -0.107   0.081
    1UNL    C17   21   0.171  -0.226   0.064
    1UNL    C18   22   0.039  -0.224   0.012
    1UNL     N2   23  -0.025  -0.110  -0.026
    1UNL    C19   24  -0.163  -0.117  -0.084
    1UNL    C20   25  -0.245  -0.004  -0.030
    1UNL     H1   26  -0.574  -0.125  -0.009
    1UNL     H2   27  -0.429  -0.144   0.102
    1UNL     H3   28  -0.438  -0.242  -0.036
    1UNL     H4   29  -0.450   0.065  -0.030
    1UNL     H5   30  -0.354   0.067  -0.368
    1UNL     H6   31  -0.243   0.211  -0.018
    1UNL     H7   32  -0.020   0.219   0.024
    1UNL     H8   33   0.000   0.184  -0.135
    1UNL     H9   34   0.258   0.211   0.036
    1UNL    H10   35   0.509   0.243   0.186
    1UNL    H11   36   0.677   0.096   0.294
    1UNL    H12   37   0.656  -0.147   0.285
    1UNL    H13   38   0.445  -0.251   0.214
    1UNL    H14   39   0.223  -0.323   0.074
    1UNL    H15   40  -0.023  -0.312   0.025
    1UNL    H16   41  -0.159  -0.120  -0.195
    1UNL    H17   42  -0.212  -0.213  -0.061
    1UNL    H18   43  -0.236  -0.007   0.079
   0.00000   0.00000   0.00000   0.00000   0.00000   0.00000   0.00000   0.00000   0.00000
Generated with MDTraj, t= 60.0
 43
    1UNL     C1    1  -0.441  -0.154  -0.008
    1UNL     C2    2  -0.378  -0.020  -0.047
    1UNL     O1    3  -0.419   0.006  -0.185
    1UNL     C3    4  -0.338   0.091  -0.262
    1UNL     C4    5  -0.231   0.162  -0.211
    1UNL     C5    6  -0.181   0.268  -0.304
    1UNL     O2    7  -0.080   0.326  -0.272
    1UNL     O3    8  -0.248   0.293  -0.403
    1UNL     C6    9  -0.169   0.122  -0.080
    1UNL     C7   10  -0.015   0.117  -0.083
    1UNL     C8   11   0.042  -0.001  -0.019
    1UNL     C9   12   0.164   0.011   0.055
    1UNL     N1   13   0.246   0.125   0.070
    1UNL    C10   14   0.359   0.075   0.135
    1UNL    C11   15   0.481   0.134   0.184
    1UNL    C12   16   0.583   0.058   0.236
    1UNL    C13   17   0.567  -0.075   0.257
    1UNL    C14   18   0.449  -0.143   0.207
    1UNL    C15   19   0.347  -0.069   0.143
    1UNL    C16   20   0.220  -0.114   0.098
    1UNL    C17   21   0.165  -0.239   0.081
    1UNL    C18   22   0.042  -0.243   0.019
    1UNL     N2   23  -0.017  -0.124  -0.025
    1UNL    C19   24  -0.145  -0.126  -0.094
    1UNL    C20   25  -0.227  -0.011  -0.026
    1UNL     H1   26  -0.551  -0.153  -0.031
    1UNL     H2   27  -0.420  -0.177   0.093
    1UNL     H3   28  -0.397  -0.247  -0.054
    1UNL     H4   29  -0.420   0.058   0.016
    1UNL     H5   30  -0.364   0.132  -0.357
    1UNL     H6   31  -0.201   0.203  -0.010
    1UNL     H7   32   0.023   0.196  -0.026
    1UNL     H8   33   0.023   0.136  -0.178
    1UNL     H9   34   0.252   0.201   0.002
    1UNL    H10   35   0.480   0.238   0.194
    1UNL    H11   36   0.678   0.101   0.266
    1UNL    H12   37   0.646  -0.141   0.275
    1UNL    H13   38   0.434  -0.250   0.221
    1UNL    H14   39   0.209  -0.328   0.115
    1UNL    H15   40  -0.003  -0.340   0.009
    1UNL    H16   41  -0.135  -0.111  -0.202
    1UNL    H17   42  -0.188  -0.228  -0.085
    1UNL    H18   43  -0.209  -0.016   0.083
   0.00000   0.00000   0.00000   0.00000   0.00000   0.00000   0.00000   0.00000   0.00000
Generated with MDTraj, t= 61.0
 43
    1UNL     C1    1  -0.447  -0.139   0.006
    1UNL     C2    2  -0.381  -0.012  -0.048
    1UNL     O1    3  -0.418   0.001  -0.186
    1UNL     C3    4  -0.348   0.097  -0.256
    1UNL     C4    5  -0.234   0.157  -0.211
    1UNL     C5    6  -0.177   0.274  -0.288
    1UNL     O2    7  -0.082   0.333  -0.240
    1UNL     O3    8  -0.235   0.295  -0.395
    1UNL     C6    9  -0.166   0.119  -0.080
    1UNL     C7   10  -0.018   0.101  -0.107
    1UNL     C8   11   0.050  -0.011  -0.032
    1UNL     C9   12   0.171   0.003   0.035
    1UNL     N1   13   0.256   0.112   0.050
    1UNL    C10   14   0.358   0.072   0.132
    1UNL    C11   15   0.479   0.139   0.169
    1UNL    C12   16   0.569   0.071   0.249
    1UNL    C13   17   0.559  -0.069   0.262
    1UNL    C14   18   0.446  -0.136   0.221
    1UNL    C15   19   0.349  -0.068   0.158
    1UNL    C16   20   0.226  -0.110   0.093
    1UNL    C17   21   0.169  -0.233   0.085
    1UNL    C18   22   0.045  -0.242   0.021
    1UNL     N2   23  -0.014  -0.135  -0.042
    1UNL    C19   24  -0.152  -0.133  -0.104
    1UNL    C20   25  -0.230  -0.017  -0.031
    1UNL     H1   26  -0.555  -0.128  -0.023
    1UNL     H2   27  -0.430  -0.157   0.113
    1UNL     H3   28  -0.405  -0.232  -0.036
    1UNL     H4   29  -0.410   0.078  -0.001
    1UNL     H5   30  -0.387   0.142  -0.353
    1UNL     H6   31  -0.185   0.201  -0.008
    1UNL     H7   32   0.032   0.188  -0.111
    1UNL     H8   33  -0.001   0.071  -0.208
    1UNL     H9   34   0.257   0.191  -0.015
    1UNL    H10   35   0.476   0.247   0.176
    1UNL    H11   36   0.658   0.127   0.277
    1UNL    H12   37   0.648  -0.131   0.295
    1UNL    H13   38   0.445  -0.242   0.230
    1UNL    H14   39   0.204  -0.309   0.157
    1UNL    H15   40   0.000  -0.339  -0.001
    1UNL    H16   41  -0.146  -0.115  -0.213
    1UNL    H17   42  -0.200  -0.232  -0.094
    1UNL    H18   43  -0.202  -0.031   0.077
   0.00000   0.00000   0.00000   0.00000   0.00000   0.00000   0.00000   0.00000   0.00000
Generated with MDTraj, t= 62.0
 43
    1UNL     C1    1  -0.455  -0.132   0.013
    1UNL     C2    2  -0.385  -0.013  -0.061
    1UNL     O1    3  -0.394  -0.019  -0.206
    1UNL     C3    4  -0.337   0.077  -0.268
    1UNL     C4    5  -0.237   0.158  -0.215
    1UNL     C5    6  -0.189   0.285  -0.277
    1UNL     O2    7  -0.094   0.344  -0.222
    1UNL     O3    8  -0.238   0.304  -0.391
    1UNL     C6    9  -0.171   0.130  -0.073
    1UNL     C7   10  -0.016   0.113  -0.096
    1UNL     C8   11   0.052  -0.015  -0.046
    1UNL     C9   12   0.184  -0.010   0.004
    1UNL     N1   13   0.273   0.097   0.025
    1UNL    C10   14   0.369   0.059   0.112
    1UNL    C11   15   0.481   0.132   0.161
    1UNL    C12   16   0.562   0.078   0.253
    1UNL    C13   17   0.543  -0.052   0.300
    1UNL    C14   18   0.447  -0.132   0.233
    1UNL    C15   19   0.357  -0.076   0.142
    1UNL    C16   20   0.237  -0.122   0.077
    1UNL    C17   21   0.167  -0.244   0.073
    1UNL    C18   22   0.040  -0.241   0.023
    1UNL     N2   23  -0.021  -0.130  -0.023
    1UNL    C19   24  -0.161  -0.128  -0.075
    1UNL    C20   25  -0.233  -0.002  -0.019
    1UNL     H1   26  -0.565  -0.115   0.007
    1UNL     H2   27  -0.419  -0.141   0.121
    1UNL     H3   28  -0.426  -0.226  -0.029
    1UNL     H4   29  -0.425   0.078  -0.035
    1UNL     H5   30  -0.366   0.084  -0.377
    1UNL     H6   31  -0.195   0.215  -0.004
    1UNL     H7   32   0.041   0.193  -0.065
    1UNL     H8   33  -0.013   0.115  -0.202
    1UNL     H9   34   0.254   0.188  -0.020
    1UNL    H10   35   0.482   0.237   0.125
    1UNL    H11   36   0.629   0.136   0.313
    1UNL    H12   37   0.606  -0.092   0.372
    1UNL    H13   38   0.438  -0.236   0.264
    1UNL    H14   39   0.210  -0.331   0.115
    1UNL    H15   40  -0.002  -0.339   0.007
    1UNL    H16   41  -0.157  -0.126  -0.184
    1UNL    H17   42  -0.213  -0.221  -0.042
    1UNL    H18   43  -0.224  -0.011   0.094
   0.00000   0.00000   0.00000   0.00000   0.00000   0.00000   0.00000   0.00000   0.00000
Generated with MDTraj, t= 63.0
 43
    1UNL     C1    1  -0.463  -0.126   0.008
    1UNL     C2    2  -0.386  -0.019  -0.071
    1UNL     O1    3  -0.395  -0.025  -0.216
    1UNL     C3    4  -0.333   0.077  -0.270
    1UNL     C4    5  -0.244   0.165  -0.207
    1UNL     C5    6  -0.193   0.282  -0.276
    1UNL     O2    7  -0.108   0.354  -0.224
    1UNL     O3    8  -0.240   0.303  -0.389
    1UNL     C6    9  -0.170   0.121  -0.076
    1UNL     C7   10  -0.010   0.111  -0.092
    1UNL     C8   11   0.061  -0.015  -0.047
    1UNL     C9   12   0.184  -0.005   0.013
    1UNL     N1   13   0.269   0.112   0.032
    1UNL    C10   14   0.373   0.067   0.108
    1UNL    C11   15   0.495   0.129   0.159
    1UNL    C12   16   0.572   0.066   0.250
    1UNL    C13   17   0.544  -0.066   0.288
    1UNL    C14   18   0.442  -0.135   0.227
    1UNL    C15   19   0.358  -0.072   0.139
    1UNL    C16   20   0.237  -0.122   0.079
    1UNL    C17   21   0.158  -0.235   0.098
    1UNL    C18   22   0.035  -0.234   0.042
    1UNL     N2   23  -0.013  -0.128  -0.030
    1UNL    C19   24  -0.154  -0.136  -0.077
    1UNL    C20   25  -0.231  -0.011  -0.026
    1UNL     H1   26  -0.565  -0.122  -0.031
    1UNL     H2   27  -0.459  -0.109   0.122
    1UNL     H3   28  -0.417  -0.222  -0.008
    1UNL     H4   29  -0.425   0.074  -0.048
    1UNL     H5   30  -0.379   0.088  -0.366
    1UNL     H6   31  -0.203   0.196   0.003
    1UNL     H7   32   0.026   0.203  -0.043
    1UNL     H8   33   0.010   0.128  -0.194
    1UNL     H9   34   0.243   0.211   0.013
    1UNL    H10   35   0.526   0.219   0.116
    1UNL    H11   36   0.643   0.126   0.309
    1UNL    H12   37   0.610  -0.108   0.368
    1UNL    H13   38   0.437  -0.240   0.236
    1UNL    H14   39   0.197  -0.322   0.153
    1UNL    H15   40  -0.036  -0.309   0.065
    1UNL    H16   41  -0.155  -0.136  -0.186
    1UNL    H17   42  -0.201  -0.229  -0.041
    1UNL    H18   43  -0.231  -0.019   0.089
   0.00000   0.00000   0.00000   0.00000   0.00000   0.00000   0.00000   0.00000   0.00000
Generated with MDTraj, t= 64.0
 43
    1UNL     C1    1  -0.438  -0.146  -0.006
    1UNL     C2    2  -0.384  -0.022  -0.070
    1UNL     O1    3  -0.408  -0.010  -0.210
    1UNL     C3    4  -0.330   0.088  -0.274
    1UNL     C4    5  -0.235   0.162  -0.218
    1UNL     C5    6  -0.186   0.276  -0.288
    1UNL     O2    7  -0.106   0.351  -0.232
    1UNL     O3    8  -0.239   0.307  -0.397
    1UNL     C6    9  -0.174   0.122  -0.089
    1UNL     C7   10  -0.015   0.112  -0.093
    1UNL     C8   11   0.048  -0.006  -0.027
    1UNL     C9   12   0.165   0.005   0.050
    1UNL     N1   13   0.250   0.115   0.072
    1UNL    C10   14   0.367   0.065   0.124
    1UNL    C11   15   0.490   0.128   0.150
    1UNL    C12   16   0.586   0.061   0.222
    1UNL    C13   17   0.568  -0.075   0.249
    1UNL    C14   18   0.451  -0.142   0.224
    1UNL    C15   19   0.351  -0.073   0.155
    1UNL    C16   20   0.223  -0.108   0.108
    1UNL    C17   21   0.159  -0.232   0.109
    1UNL    C18   22   0.047  -0.241   0.035
    1UNL     N2   23  -0.016  -0.129  -0.025
    1UNL    C19   24  -0.158  -0.136  -0.078
    1UNL    C20   25  -0.234  -0.011  -0.037
    1UNL     H1   26  -0.545  -0.141  -0.028
    1UNL     H2   27  -0.418  -0.158   0.104
    1UNL     H3   28  -0.402  -0.236  -0.059
    1UNL     H4   29  -0.422   0.070  -0.036
    1UNL     H5   30  -0.378   0.122  -0.361
    1UNL     H6   31  -0.203   0.204  -0.015
    1UNL     H7   32   0.031   0.205  -0.042
    1UNL     H8   33   0.015   0.127  -0.195
    1UNL     H9   34   0.250   0.207   0.023
    1UNL    H10   35   0.507   0.230   0.111
    1UNL    H11   36   0.678   0.110   0.243
    1UNL    H12   37   0.639  -0.127   0.306
    1UNL    H13   38   0.454  -0.252   0.227
    1UNL    H14   39   0.209  -0.312   0.160
    1UNL    H15   40  -0.013  -0.333   0.044
    1UNL    H16   41  -0.157  -0.155  -0.186
    1UNL    H17   42  -0.200  -0.221  -0.020
    1UNL    H18   43  -0.218  -0.006   0.077
   0.00000   0.00000   0.00000   0.00000   0.00000   0.00000   0.00000   0.00000   0.00000
Generated with MDTraj, t= 65.0
 43
    1UNL     C1    1  -0.456  -0.151  -0.027
    1UNL     C2    2  -0.386  -0.026  -0.081
    1UNL     O1    3  -0.405  -0.014  -0.222
    1UNL     C3    4  -0.334   0.089  -0.276
    1UNL     C4    5  -0.237   0.156  -0.208
    1UNL     C5    6  -0.177   0.263  -0.278
    1UNL     O2    7  -0.073   0.322  -0.241
    1UNL     O3    8  -0.225   0.293  -0.392
    1UNL     C6    9  -0.190   0.122  -0.073
    1UNL     C7   10  -0.040   0.124  -0.070
    1UNL     C8   11   0.037   0.008  -0.013
    1UNL     C9   12   0.157   0.017   0.064
    1UNL     N1   13   0.250   0.120   0.073
    1UNL    C10   14   0.369   0.065   0.134
    1UNL    C11   15   0.486   0.134   0.165
    1UNL    C12   16   0.596   0.056   0.203
    1UNL    C13   17   0.586  -0.078   0.225
    1UNL    C14   18   0.468  -0.144   0.196
    1UNL    C15   19   0.350  -0.074   0.156
    1UNL    C16   20   0.217  -0.103   0.122
    1UNL    C17   21   0.153  -0.228   0.111
    1UNL    C18   22   0.042  -0.227   0.033
    1UNL     N2   23  -0.020  -0.114  -0.023
    1UNL    C19   24  -0.155  -0.127  -0.081
    1UNL    C20   25  -0.240  -0.012  -0.028
    1UNL     H1   26  -0.561  -0.162  -0.059
    1UNL     H2   27  -0.457  -0.148   0.081
    1UNL     H3   28  -0.409  -0.250  -0.058
    1UNL     H4   29  -0.435   0.062  -0.040
    1UNL     H5   30  -0.325   0.115  -0.382
    1UNL     H6   31  -0.225   0.204  -0.003
    1UNL     H7   32   0.002   0.222  -0.023
    1UNL     H8   33  -0.002   0.127  -0.174
    1UNL     H9   34   0.254   0.196   0.003
    1UNL    H10   35   0.493   0.236   0.160
    1UNL    H11   36   0.690   0.105   0.226
    1UNL    H12   37   0.675  -0.136   0.254
    1UNL    H13   38   0.453  -0.246   0.218
    1UNL    H14   39   0.185  -0.317   0.162
    1UNL    H15   40  -0.008  -0.316   0.010
    1UNL    H16   41  -0.155  -0.112  -0.190
    1UNL    H17   42  -0.193  -0.224  -0.047
    1UNL    H18   43  -0.252  -0.028   0.086
   0.00000   0.00000   0.00000   0.00000   0.00000   0.00000   0.00000   0.00000   0.00000
Generated with MDTraj, t= 66.0
 43
    1UNL     C1    1  -0.464  -0.148  -0.030
    1UNL     C2    2  -0.398  -0.021  -0.085
    1UNL     O1    3  -0.397  -0.021  -0.228
    1UNL     C3    4  -0.308   0.069  -0.280
    1UNL     C4    5  -0.220   0.148  -0.210
    1UNL     C5    6  -0.159   0.259  -0.280
    1UNL     O2    7  -0.064   0.321  -0.229
    1UNL     O3    8  -0.198   0.276  -0.399
    1UNL     C6    9  -0.199   0.127  -0.062
    1UNL     C7   10  -0.048   0.141  -0.016
    1UNL     C8   11   0.024   0.014   0.029
    1UNL     C9   12   0.162   0.014   0.058
    1UNL     N1   13   0.247   0.125   0.069
    1UNL    C10   14   0.365   0.069   0.118
    1UNL    C11   15   0.478   0.134   0.154
    1UNL    C12   16   0.588   0.065   0.210
    1UNL    C13   17   0.574  -0.074   0.218
    1UNL    C14   18   0.466  -0.141   0.185
    1UNL    C15   19   0.354  -0.072   0.134
    1UNL    C16   20   0.230  -0.109   0.084
    1UNL    C17   21   0.166  -0.233   0.071
    1UNL    C18   22   0.034  -0.229   0.033
    1UNL     N2   23  -0.033  -0.110   0.001
    1UNL    C19   24  -0.171  -0.126  -0.062
    1UNL    C20   25  -0.259  -0.006  -0.027
    1UNL     H1   26  -0.575  -0.153  -0.050
    1UNL     H2   27  -0.452  -0.141   0.075
    1UNL     H3   28  -0.416  -0.243  -0.070
    1UNL     H4   29  -0.451   0.071  -0.046
    1UNL     H5   30  -0.296   0.054  -0.391
    1UNL     H6   31  -0.241   0.215  -0.004
    1UNL     H7   32  -0.045   0.219   0.069
    1UNL     H8   33   0.015   0.189  -0.102
    1UNL     H9   34   0.234   0.214   0.020
    1UNL    H10   35   0.477   0.245   0.163
    1UNL    H11   36   0.676   0.121   0.235
    1UNL    H12   37   0.659  -0.128   0.254
    1UNL    H13   38   0.460  -0.246   0.214
    1UNL    H14   39   0.205  -0.324   0.116
    1UNL    H15   40  -0.017  -0.322   0.002
    1UNL    H16   41  -0.155  -0.135  -0.171
    1UNL    H17   42  -0.215  -0.212  -0.012
    1UNL    H18   43  -0.280  -0.014   0.086
   0.00000   0.00000   0.00000   0.00000   0.00000   0.00000   0.00000   0.00000   0.00000
Generated with MDTraj, t= 67.0
 43
    1UNL     C1    1  -0.501  -0.119  -0.024
    1UNL     C2    2  -0.404  -0.019  -0.087
    1UNL     O1    3  -0.380  -0.034  -0.236
    1UNL     C3    4  -0.282   0.051  -0.277
    1UNL     C4    5  -0.211   0.143  -0.201
    1UNL     C5    6  -0.129   0.242  -0.272
    1UNL     O2    7  -0.076   0.330  -0.202
    1UNL     O3    8  -0.131   0.240  -0.399
    1UNL     C6    9  -0.205   0.128  -0.048
    1UNL     C7   10  -0.058   0.137   0.005
    1UNL     C8   11   0.020   0.014   0.006
    1UNL     C9   12   0.156   0.019   0.039
    1UNL     N1   13   0.232   0.132   0.078
    1UNL    C10   14   0.358   0.080   0.124
    1UNL    C11   15   0.470   0.142   0.169
    1UNL    C12   16   0.584   0.069   0.200
    1UNL    C13   17   0.575  -0.070   0.199
    1UNL    C14   18   0.459  -0.134   0.163
    1UNL    C15   19   0.347  -0.061   0.113
    1UNL    C16   20   0.228  -0.102   0.062
    1UNL    C17   21   0.171  -0.230   0.043
    1UNL    C18   22   0.036  -0.228   0.022
    1UNL     N2   23  -0.037  -0.112   0.006
    1UNL    C19   24  -0.183  -0.137  -0.034
    1UNL    C20   25  -0.268  -0.008  -0.010
    1UNL     H1   26  -0.595  -0.124  -0.088
    1UNL     H2   27  -0.532  -0.082   0.074
    1UNL     H3   28  -0.449  -0.214  -0.020
    1UNL     H4   29  -0.450   0.086  -0.076
    1UNL     H5   30  -0.303   0.052  -0.387
    1UNL     H6   31  -0.247   0.219   0.004
    1UNL     H7   32  -0.059   0.186   0.108
    1UNL     H8   33  -0.007   0.216  -0.067
    1UNL     H9   34   0.215   0.231   0.088
    1UNL    H10   35   0.482   0.251   0.180
    1UNL    H11   36   0.683   0.116   0.209
    1UNL    H12   37   0.659  -0.122   0.242
    1UNL    H13   38   0.445  -0.243   0.165
    1UNL    H14   39   0.232  -0.317   0.044
    1UNL    H15   40  -0.012  -0.317  -0.005
    1UNL    H16   41  -0.182  -0.155  -0.143
    1UNL    H17   42  -0.212  -0.222   0.026
    1UNL    H18   43  -0.293  -0.008   0.102
   0.00000   0.00000   0.00000   0.00000   0.00000   0.00000   0.00000   0.00000   0.00000
Generated with MDTraj, t= 68.0
 43
    1UNL     C1    1  -0.514  -0.112  -0.038
    1UNL     C2    2  -0.414  -0.018  -0.088
    1UNL     O1    3  -0.373  -0.038  -0.228
    1UNL     C3    4  -0.269   0.035  -0.277
    1UNL     C4    5  -0.196   0.130  -0.200
    1UNL     C5    6  -0.099   0.227  -0.257
    1UNL     O2    7  -0.066   0.335  -0.198
    1UNL     O3    8  -0.078   0.200  -0.378
    1UNL     C6    9  -0.213   0.131  -0.053
    1UNL     C7   10  -0.076   0.139   0.024
    1UNL     C8   11   0.008   0.013   0.022
    1UNL     C9   12   0.144   0.018   0.061
    1UNL     N1   13   0.224   0.127   0.099
    1UNL    C10   14   0.355   0.081   0.120
    1UNL    C11   15   0.459   0.148   0.170
    1UNL    C12   16   0.579   0.076   0.192
    1UNL    C13   17   0.581  -0.062   0.169
    1UNL    C14   18   0.474  -0.129   0.125
    1UNL    C15   19   0.353  -0.057   0.103
    1UNL    C16   20   0.225  -0.097   0.055
    1UNL    C17   21   0.163  -0.219   0.029
    1UNL    C18   22   0.033  -0.220   0.001
    1UNL     N2   23  -0.051  -0.106   0.003
    1UNL    C19   24  -0.200  -0.127  -0.025
    1UNL    C20   25  -0.283   0.002   0.001
    1UNL     H1   26  -0.599  -0.107  -0.109
    1UNL     H2   27  -0.561  -0.087   0.061
    1UNL     H3   28  -0.471  -0.210  -0.042
    1UNL     H4   29  -0.468   0.087  -0.097
    1UNL     H5   30  -0.271   0.046  -0.383
    1UNL     H6   31  -0.266   0.225  -0.022
    1UNL     H7   32  -0.088   0.176   0.133
    1UNL     H8   33  -0.013   0.220  -0.023
    1UNL     H9   34   0.190   0.215   0.134
    1UNL    H10   35   0.458   0.252   0.157
    1UNL    H11   36   0.658   0.135   0.234
    1UNL    H12   37   0.681  -0.106   0.183
    1UNL    H13   38   0.474  -0.232   0.102
    1UNL    H14   39   0.225  -0.309   0.015
    1UNL    H15   40  -0.023  -0.316  -0.008
    1UNL    H16   41  -0.208  -0.154  -0.132
    1UNL    H17   42  -0.235  -0.200   0.044
    1UNL    H18   43  -0.319  -0.004   0.110
   0.00000   0.00000   0.00000   0.00000   0.00000   0.00000   0.00000   0.00000   0.00000
Generated with MDTraj, t= 69.0
 43
    1UNL     C1    1  -0.501  -0.139  -0.061
    1UNL     C2    2  -0.422  -0.023  -0.104
    1UNL     O1    3  -0.374  -0.033  -0.233
    1UNL     C3    4  -0.260   0.048  -0.264
    1UNL     C4    5  -0.179   0.124  -0.186
    1UNL     C5    6  -0.071   0.203  -0.251
    1UNL     O2    7  -0.018   0.288  -0.182
    1UNL     O3    8  -0.044   0.185  -0.369
    1UNL     C6    9  -0.221   0.135  -0.042
    1UNL     C7   10  -0.093   0.151   0.046
    1UNL     C8   11  -0.008   0.023   0.051
    1UNL     C9   12   0.128   0.029   0.082
    1UNL     N1   13   0.209   0.138   0.112
    1UNL    C10   14   0.347   0.089   0.121
    1UNL    C11   15   0.467   0.149   0.159
    1UNL    C12   16   0.581   0.077   0.171
    1UNL    C13   17   0.586  -0.057   0.127
    1UNL    C14   18   0.469  -0.119   0.087
    1UNL    C15   19   0.344  -0.050   0.095
    1UNL    C16   20   0.211  -0.087   0.071
    1UNL    C17   21   0.148  -0.212   0.026
    1UNL    C18   22   0.018  -0.206  -0.012
    1UNL     N2   23  -0.063  -0.095   0.004
    1UNL    C19   24  -0.210  -0.123  -0.013
    1UNL    C20   25  -0.299   0.005  -0.005
    1UNL     H1   26  -0.595  -0.147  -0.115
    1UNL     H2   27  -0.534  -0.136   0.049
    1UNL     H3   28  -0.441  -0.226  -0.081
    1UNL     H4   29  -0.482   0.080  -0.104
    1UNL     H5   30  -0.218   0.023  -0.357
    1UNL     H6   31  -0.285   0.223  -0.017
    1UNL     H7   32  -0.118   0.178   0.157
    1UNL     H8   33  -0.030   0.234   0.019
    1UNL     H9   34   0.183   0.231   0.143
    1UNL    H10   35   0.467   0.261   0.165
    1UNL    H11   36   0.670   0.128   0.205
    1UNL    H12   37   0.665  -0.122   0.147
    1UNL    H13   38   0.466  -0.219   0.042
    1UNL    H14   39   0.206  -0.301   0.023
    1UNL    H15   40  -0.035  -0.289  -0.049
    1UNL    H16   41  -0.215  -0.157  -0.118
    1UNL    H17   42  -0.232  -0.195   0.063
    1UNL    H18   43  -0.328   0.006   0.105
   0.00000   0.00000   0.00000   0.00000   0.00000   0.00000   0.00000   0.00000   0.00000
Generated with MDTraj, t= 70.0
 43
    1UNL     C1    1  -0.522  -0.124  -0.088
    1UNL     C2    2  -0.414  -0.017  -0.113
    1UNL     O1    3  -0.355  -0.020  -0.240
    1UNL     C3    4  -0.251   0.061  -0.270
    1UNL     C4    5  -0.174   0.132  -0.180
    1UNL     C5    6  -0.047   0.186  -0.230
    1UNL     O2    7   0.032   0.239  -0.150
    1UNL     O3    8  -0.023   0.175  -0.351
    1UNL     C6    9  -0.215   0.121  -0.040
    1UNL     C7   10  -0.105   0.138   0.060
    1UNL     C8   11  -0.015   0.020   0.063
    1UNL     C9   12   0.120   0.030   0.079
    1UNL     N1   13   0.204   0.144   0.113
    1UNL    C10   14   0.335   0.101   0.121
    1UNL    C11   15   0.457   0.169   0.148
    1UNL    C12   16   0.576   0.096   0.132
    1UNL    C13   17   0.573  -0.042   0.096
    1UNL    C14   18   0.457  -0.107   0.068
    1UNL    C15   19   0.337  -0.040   0.087
    1UNL    C16   20   0.203  -0.084   0.064
    1UNL    C17   21   0.142  -0.210   0.025
    1UNL    C18   22   0.011  -0.216   0.004
    1UNL     N2   23  -0.071  -0.104   0.024
    1UNL    C19   24  -0.221  -0.131   0.004
    1UNL    C20   25  -0.300  -0.002  -0.004
    1UNL     H1   26  -0.597  -0.127  -0.165
    1UNL     H2   27  -0.583  -0.099   0.003
    1UNL     H3   28  -0.471  -0.223  -0.081
    1UNL     H4   29  -0.474   0.086  -0.094
    1UNL     H5   30  -0.200   0.030  -0.363
    1UNL     H6   31  -0.287   0.202  -0.018
    1UNL     H7   32  -0.147   0.145   0.166
    1UNL     H8   33  -0.045   0.226   0.049
    1UNL     H9   34   0.177   0.240   0.130
    1UNL    H10   35   0.449   0.268   0.177
    1UNL    H11   36   0.671   0.146   0.145
    1UNL    H12   37   0.672  -0.096   0.107
    1UNL    H13   38   0.455  -0.211   0.050
    1UNL    H14   39   0.202  -0.301   0.025
    1UNL    H15   40  -0.034  -0.306  -0.044
    1UNL    H16   41  -0.223  -0.171  -0.098
    1UNL    H17   42  -0.258  -0.193   0.081
    1UNL    H18   43  -0.355   0.001   0.096
   0.00000   0.00000   0.00000   0.00000   0.00000   0.00000   0.00000   0.00000   0.00000
Generated with MDTraj, t= 71.0
 43
    1UNL     C1    1  -0.522  -0.092  -0.099
    1UNL     C2    2  -0.405   0.000  -0.118
    1UNL     O1    3  -0.344  -0.023  -0.250
    1UNL     C3    4  -0.231   0.042  -0.267
    1UNL     C4    5  -0.160   0.116  -0.170
    1UNL     C5    6  -0.023   0.177  -0.207
    1UNL     O2    7   0.036   0.249  -0.117
    1UNL     O3    8   0.018   0.172  -0.328
    1UNL     C6    9  -0.213   0.121  -0.030
    1UNL     C7   10  -0.110   0.130   0.079
    1UNL     C8   11  -0.030   0.005   0.073
    1UNL     C9   12   0.108   0.020   0.080
    1UNL     N1   13   0.189   0.132   0.110
    1UNL    C10   14   0.322   0.099   0.097
    1UNL    C11   15   0.441   0.177   0.112
    1UNL    C12   16   0.561   0.119   0.095
    1UNL    C13   17   0.574  -0.020   0.077
    1UNL    C14   18   0.457  -0.096   0.075
    1UNL    C15   19   0.329  -0.040   0.084
    1UNL    C16   20   0.197  -0.090   0.057
    1UNL    C17   21   0.139  -0.216   0.027
    1UNL    C18   22   0.003  -0.230   0.025
    1UNL     N2   23  -0.080  -0.120   0.039
    1UNL    C19   24  -0.228  -0.137  -0.012
    1UNL    C20   25  -0.305   0.001  -0.006
    1UNL     H1   26  -0.597  -0.071  -0.174
    1UNL     H2   27  -0.572  -0.064  -0.007
    1UNL     H3   28  -0.483  -0.199  -0.103
    1UNL     H4   29  -0.438   0.117  -0.113
    1UNL     H5   30  -0.198   0.028  -0.376
    1UNL     H6   31  -0.268   0.216  -0.024
    1UNL     H7   32  -0.150   0.153   0.175
    1UNL     H8   33  -0.048   0.215   0.060
    1UNL     H9   34   0.152   0.228   0.105
    1UNL    H10   35   0.422   0.283   0.133
    1UNL    H11   36   0.651   0.178   0.094
    1UNL    H12   37   0.664  -0.063   0.051
    1UNL    H13   38   0.466  -0.205   0.094
    1UNL    H14   39   0.212  -0.289  -0.002
    1UNL    H15   40  -0.049  -0.318  -0.000
    1UNL    H16   41  -0.215  -0.168  -0.116
    1UNL    H17   42  -0.278  -0.204   0.050
    1UNL    H18   43  -0.358   0.001   0.094
   0.00000   0.00000   0.00000   0.00000   0.00000   0.00000   0.00000   0.00000   0.00000
Generated with MDTraj, t= 72.0
 43
    1UNL     C1    1  -0.509  -0.113  -0.140
    1UNL     C2    2  -0.405  -0.002  -0.139
    1UNL     O1    3  -0.313  -0.028  -0.255
    1UNL     C3    4  -0.194   0.043  -0.259
    1UNL     C4    5  -0.151   0.121  -0.158
    1UNL     C5    6  -0.024   0.190  -0.180
    1UNL     O2    7  -0.001   0.285  -0.096
    1UNL     O3    8   0.037   0.149  -0.283
    1UNL     C6    9  -0.225   0.131  -0.026
    1UNL     C7   10  -0.120   0.126   0.091
    1UNL     C8   11  -0.032   0.008   0.082
    1UNL     C9   12   0.111   0.020   0.094
    1UNL     N1   13   0.190   0.136   0.090
    1UNL    C10   14   0.320   0.097   0.086
    1UNL    C11   15   0.442   0.171   0.080
    1UNL    C12   16   0.560   0.115   0.053
    1UNL    C13   17   0.564  -0.028   0.045
    1UNL    C14   18   0.453  -0.109   0.071
    1UNL    C15   19   0.331  -0.044   0.084
    1UNL    C16   20   0.194  -0.094   0.083
    1UNL    C17   21   0.131  -0.217   0.051
    1UNL    C18   22  -0.001  -0.217   0.034
    1UNL     N2   23  -0.088  -0.111   0.042
    1UNL    C19   24  -0.232  -0.133  -0.003
    1UNL    C20   25  -0.319   0.005  -0.013
    1UNL     H1   26  -0.570  -0.111  -0.233
    1UNL     H2   27  -0.581  -0.096  -0.063
    1UNL     H3   28  -0.454  -0.211  -0.130
    1UNL     H4   29  -0.443   0.111  -0.158
    1UNL     H5   30  -0.138   0.039  -0.351
    1UNL     H6   31  -0.275   0.227  -0.015
    1UNL     H7   32  -0.154   0.148   0.183
    1UNL     H8   33  -0.062   0.216   0.076
    1UNL     H9   34   0.153   0.209   0.028
    1UNL    H10   35   0.437   0.280   0.089
    1UNL    H11   36   0.638   0.173   0.005
    1UNL    H12   37   0.665  -0.074   0.027
    1UNL    H13   38   0.460  -0.213   0.069
    1UNL    H14   39   0.186  -0.303   0.021
    1UNL    H15   40  -0.045  -0.315   0.003
    1UNL    H16   41  -0.220  -0.172  -0.103
    1UNL    H17   42  -0.265  -0.202   0.069
    1UNL    H18   43  -0.386   0.009   0.077
   0.00000   0.00000   0.00000   0.00000   0.00000   0.00000   0.00000   0.00000   0.00000
Generated with MDTraj, t= 73.0
 43
    1UNL     C1    1  -0.467  -0.131  -0.156
    1UNL     C2    2  -0.371  -0.021  -0.163
    1UNL     O1    3  -0.281  -0.042  -0.269
    1UNL     C3    4  -0.173   0.046  -0.257
    1UNL     C4    5  -0.141   0.133  -0.156
    1UNL     C5    6  -0.022   0.213  -0.159
    1UNL     O2    7  -0.014   0.303  -0.073
    1UNL     O3    8   0.062   0.189  -0.245
    1UNL     C6    9  -0.219   0.128  -0.025
    1UNL     C7   10  -0.125   0.131   0.101
    1UNL     C8   11  -0.040   0.009   0.094
    1UNL     C9   12   0.098   0.025   0.087
    1UNL     N1   13   0.177   0.142   0.063
    1UNL    C10   14   0.305   0.100   0.044
    1UNL    C11   15   0.430   0.165   0.038
    1UNL    C12   16   0.550   0.095   0.028
    1UNL    C13   17   0.546  -0.044   0.035
    1UNL    C14   18   0.427  -0.114   0.048
    1UNL    C15   19   0.310  -0.044   0.060
    1UNL    C16   20   0.176  -0.092   0.089
    1UNL    C17   21   0.123  -0.219   0.083
    1UNL    C18   22  -0.016  -0.229   0.058
    1UNL     N2   23  -0.090  -0.114   0.069
    1UNL    C19   24  -0.234  -0.129   0.032
    1UNL    C20   25  -0.305   0.002  -0.014
    1UNL     H1   26  -0.521  -0.146  -0.255
    1UNL     H2   27  -0.548  -0.109  -0.088
    1UNL     H3   28  -0.413  -0.223  -0.135
    1UNL     H4   29  -0.419   0.084  -0.200
    1UNL     H5   30  -0.104   0.049  -0.334
    1UNL     H6   31  -0.287   0.213  -0.018
    1UNL     H7   32  -0.190   0.118   0.179
    1UNL     H8   33  -0.079   0.222   0.130
    1UNL     H9   34   0.131   0.218   0.014
    1UNL    H10   35   0.431   0.267   0.020
    1UNL    H11   36   0.647   0.144   0.025
    1UNL    H12   37   0.637  -0.098   0.035
    1UNL    H13   38   0.425  -0.224   0.052
    1UNL    H14   39   0.190  -0.303   0.094
    1UNL    H15   40  -0.069  -0.318   0.037
    1UNL    H16   41  -0.219  -0.188  -0.057
    1UNL    H17   42  -0.290  -0.173   0.110
    1UNL    H18   43  -0.397   0.011   0.050
   0.00000   0.00000   0.00000   0.00000   0.00000   0.00000   0.00000   0.00000   0.00000
Generated with MDTraj, t= 74.0
 43
    1UNL     C1    1  -0.451  -0.130  -0.188
    1UNL     C2    2  -0.336  -0.034  -0.177
    1UNL     O1    3  -0.219  -0.062  -0.249
    1UNL     C3    4  -0.135   0.042  -0.246
    1UNL     C4    5  -0.136   0.139  -0.148
    1UNL     C5    6  -0.031   0.238  -0.159
    1UNL     O2    7  -0.022   0.315  -0.061
    1UNL     O3    8   0.046   0.229  -0.255
    1UNL     C6    9  -0.215   0.126  -0.022
    1UNL     C7   10  -0.128   0.126   0.105
    1UNL     C8   11  -0.047   0.007   0.106
    1UNL     C9   12   0.093   0.021   0.098
    1UNL     N1   13   0.172   0.135   0.071
    1UNL    C10   14   0.300   0.088   0.047
    1UNL    C11   15   0.410   0.163   0.006
    1UNL    C12   16   0.524   0.087  -0.012
    1UNL    C13   17   0.535  -0.048   0.007
    1UNL    C14   18   0.422  -0.122   0.042
    1UNL    C15   19   0.305  -0.051   0.068
    1UNL    C16   20   0.168  -0.099   0.088
    1UNL    C17   21   0.116  -0.226   0.095
    1UNL    C18   22  -0.022  -0.229   0.085
    1UNL     N2   23  -0.102  -0.115   0.082
    1UNL    C19   24  -0.252  -0.115   0.051
    1UNL    C20   25  -0.303   0.005  -0.023
    1UNL     H1   26  -0.475  -0.139  -0.298
    1UNL     H2   27  -0.544  -0.089  -0.144
    1UNL     H3   28  -0.417  -0.226  -0.157
    1UNL     H4   29  -0.367   0.073  -0.226
    1UNL     H5   30  -0.046   0.027  -0.311
    1UNL     H6   31  -0.270   0.219  -0.021
    1UNL     H7   32  -0.189   0.129   0.193
    1UNL     H8   33  -0.075   0.212   0.116
    1UNL     H9   34   0.126   0.221   0.035
    1UNL    H10   35   0.401   0.267  -0.035
    1UNL    H11   36   0.618   0.138  -0.020
    1UNL    H12   37   0.623  -0.110   0.004
    1UNL    H13   38   0.421  -0.229   0.053
    1UNL    H14   39   0.166  -0.320   0.116
    1UNL    H15   40  -0.065  -0.332   0.093
    1UNL    H16   41  -0.261  -0.196  -0.019
    1UNL    H17   42  -0.298  -0.131   0.144
    1UNL    H18   43  -0.397   0.031   0.032
   0.00000   0.00000   0.00000   0.00000   0.00000   0.00000   0.00000   0.00000   0.00000
Generated with MDTraj, t= 75.0
 43
    1UNL     C1    1  -0.415  -0.151  -0.199
    1UNL     C2    2  -0.318  -0.041  -0.183
    1UNL     O1    3  -0.188  -0.075  -0.235
    1UNL     C3    4  -0.110   0.028  -0.225
    1UNL     C4    5  -0.119   0.132  -0.134
    1UNL     C5    6  -0.028   0.248  -0.153
    1UNL     O2    7  -0.018   0.321  -0.053
    1UNL     O3    8   0.026   0.253  -0.263
    1UNL     C6    9  -0.217   0.132  -0.023
    1UNL     C7   10  -0.141   0.136   0.113
    1UNL     C8   11  -0.049   0.016   0.108
    1UNL     C9   12   0.090   0.022   0.113
    1UNL     N1   13   0.169   0.134   0.093
    1UNL    C10   14   0.298   0.087   0.066
    1UNL    C11   15   0.403   0.151  -0.002
    1UNL    C12   16   0.515   0.076  -0.044
    1UNL    C13   17   0.516  -0.061  -0.026
    1UNL    C14   18   0.410  -0.125   0.029
    1UNL    C15   19   0.301  -0.053   0.068
    1UNL    C16   20   0.162  -0.095   0.097
    1UNL    C17   21   0.102  -0.218   0.084
    1UNL    C18   22  -0.037  -0.222   0.097
    1UNL     N2   23  -0.107  -0.103   0.094
    1UNL    C19   24  -0.252  -0.115   0.040
    1UNL    C20   25  -0.306   0.010  -0.042
    1UNL     H1   26  -0.436  -0.161  -0.306
    1UNL     H2   27  -0.511  -0.113  -0.152
    1UNL     H3   28  -0.378  -0.244  -0.160
    1UNL     H4   29  -0.360   0.055  -0.245
    1UNL     H5   30  -0.025   0.013  -0.299
    1UNL     H6   31  -0.273   0.225  -0.038
    1UNL     H7   32  -0.205   0.140   0.198
    1UNL     H8   33  -0.089   0.226   0.116
    1UNL     H9   34   0.143   0.235   0.086
    1UNL    H10   35   0.406   0.253  -0.024
    1UNL    H11   36   0.597   0.115  -0.106
    1UNL    H12   37   0.613  -0.121  -0.031
    1UNL    H13   38   0.410  -0.231   0.039
    1UNL    H14   39   0.155  -0.303   0.043
    1UNL    H15   40  -0.094  -0.310   0.087
    1UNL    H16   41  -0.256  -0.207  -0.014
    1UNL    H17   42  -0.304  -0.118   0.131
    1UNL    H18   43  -0.408   0.030  -0.004
   0.00000   0.00000   0.00000   0.00000   0.00000   0.00000   0.00000   0.00000   0.00000
Generated with MDTraj, t= 76.0
 43
    1UNL     C1    1  -0.393  -0.173  -0.189
    1UNL     C2    2  -0.315  -0.046  -0.177
    1UNL     O1    3  -0.179  -0.074  -0.236
    1UNL     C3    4  -0.101   0.035  -0.233
    1UNL     C4    5  -0.113   0.137  -0.144
    1UNL     C5    6  -0.014   0.251  -0.144
    1UNL     O2    7  -0.016   0.332  -0.049
    1UNL     O3    8   0.051   0.250  -0.248
    1UNL     C6    9  -0.213   0.133  -0.033
    1UNL     C7   10  -0.141   0.134   0.104
    1UNL     C8   11  -0.055   0.015   0.119
    1UNL     C9   12   0.084   0.020   0.107
    1UNL     N1   13   0.161   0.134   0.085
    1UNL    C10   14   0.290   0.087   0.051
    1UNL    C11   15   0.402   0.154   0.003
    1UNL    C12   16   0.510   0.083  -0.032
    1UNL    C13   17   0.513  -0.055  -0.038
    1UNL    C14   18   0.401  -0.127   0.005
    1UNL    C15   19   0.289  -0.057   0.057
    1UNL    C16   20   0.153  -0.100   0.081
    1UNL    C17   21   0.089  -0.222   0.084
    1UNL    C18   22  -0.046  -0.223   0.104
    1UNL     N2   23  -0.115  -0.103   0.106
    1UNL    C19   24  -0.262  -0.105   0.064
    1UNL    C20   25  -0.303   0.011  -0.038
    1UNL     H1   26  -0.391  -0.208  -0.290
    1UNL     H2   27  -0.501  -0.153  -0.162
    1UNL     H3   28  -0.350  -0.257  -0.132
    1UNL     H4   29  -0.360   0.042  -0.245
    1UNL     H5   30  -0.024   0.050  -0.307
    1UNL     H6   31  -0.277   0.222  -0.037
    1UNL     H7   32  -0.213   0.130   0.181
    1UNL     H8   33  -0.083   0.228   0.123
    1UNL     H9   34   0.120   0.227   0.071
    1UNL    H10   35   0.396   0.264  -0.005
    1UNL    H11   36   0.598   0.134  -0.064
    1UNL    H12   37   0.583  -0.104  -0.094
    1UNL    H13   38   0.404  -0.238   0.013
    1UNL    H14   39   0.144  -0.311   0.073
    1UNL    H15   40  -0.091  -0.323   0.092
    1UNL    H16   41  -0.267  -0.207   0.031
    1UNL    H17   42  -0.318  -0.093   0.151
    1UNL    H18   43  -0.405   0.031  -0.006
   0.00000   0.00000   0.00000   0.00000   0.00000   0.00000   0.00000   0.00000   0.00000
Generated with MDTraj, t= 77.0
 43
    1UNL     C1    1  -0.400  -0.179  -0.193
    1UNL     C2    2  -0.310  -0.056  -0.177
    1UNL     O1    3  -0.180  -0.081  -0.225
    1UNL     C3    4  -0.104   0.035  -0.221
    1UNL     C4    5  -0.123   0.144  -0.138
    1UNL     C5    6  -0.010   0.241  -0.139
    1UNL     O2    7  -0.029   0.332  -0.059
    1UNL     O3    8   0.084   0.229  -0.216
    1UNL     C6    9  -0.222   0.141  -0.026
    1UNL     C7   10  -0.146   0.139   0.108
    1UNL     C8   11  -0.059   0.019   0.116
    1UNL     C9   12   0.078   0.027   0.103
    1UNL     N1   13   0.165   0.135   0.066
    1UNL    C10   14   0.289   0.090   0.038
    1UNL    C11   15   0.407   0.155   0.002
    1UNL    C12   16   0.516   0.079  -0.033
    1UNL    C13   17   0.512  -0.060  -0.025
    1UNL    C14   18   0.397  -0.126   0.007
    1UNL    C15   19   0.287  -0.050   0.047
    1UNL    C16   20   0.154  -0.089   0.085
    1UNL    C17   21   0.095  -0.213   0.070
    1UNL    C18   22  -0.041  -0.215   0.072
    1UNL     N2   23  -0.119  -0.103   0.091
    1UNL    C19   24  -0.267  -0.104   0.074
    1UNL    C20   25  -0.310   0.007  -0.028
    1UNL     H1   26  -0.420  -0.203  -0.295
    1UNL     H2   27  -0.495  -0.161  -0.139
    1UNL     H3   28  -0.344  -0.272  -0.157
    1UNL     H4   29  -0.338   0.036  -0.248
    1UNL     H5   30  -0.024   0.056  -0.284
    1UNL     H6   31  -0.275   0.237  -0.035
    1UNL     H7   32  -0.214   0.128   0.193
    1UNL     H8   33  -0.080   0.233   0.123
    1UNL     H9   34   0.133   0.226   0.037
    1UNL    H10   35   0.416   0.263   0.009
    1UNL    H11   36   0.607   0.134  -0.066
    1UNL    H12   37   0.608  -0.112  -0.058
    1UNL    H13   38   0.397  -0.229   0.010
    1UNL    H14   39   0.163  -0.297   0.064
    1UNL    H15   40  -0.092  -0.301   0.038
    1UNL    H16   41  -0.271  -0.203   0.027
    1UNL    H17   42  -0.308  -0.105   0.172
    1UNL    H18   43  -0.411   0.030   0.003
   0.00000   0.00000   0.00000   0.00000   0.00000   0.00000   0.00000   0.00000   0.00000
Generated with MDTraj, t= 78.0
 43
    1UNL     C1    1  -0.433  -0.152  -0.206
    1UNL     C2    2  -0.329  -0.041  -0.179
    1UNL     O1    3  -0.201  -0.084  -0.221
    1UNL     C3    4  -0.112   0.018  -0.228
    1UNL     C4    5  -0.119   0.130  -0.148
    1UNL     C5    6  -0.015   0.235  -0.147
    1UNL     O2    7  -0.029   0.322  -0.060
    1UNL     O3    8   0.086   0.219  -0.215
    1UNL     C6    9  -0.216   0.127  -0.026
    1UNL     C7   10  -0.144   0.135   0.106
    1UNL     C8   11  -0.052   0.019   0.119
    1UNL     C9   12   0.087   0.029   0.105
    1UNL     N1   13   0.165   0.137   0.073
    1UNL    C10   14   0.293   0.091   0.047
    1UNL    C11   15   0.415   0.154   0.007
    1UNL    C12   16   0.529   0.094  -0.029
    1UNL    C13   17   0.527  -0.045  -0.028
    1UNL    C14   18   0.417  -0.114   0.019
    1UNL    C15   19   0.294  -0.052   0.052
    1UNL    C16   20   0.164  -0.091   0.082
    1UNL    C17   21   0.090  -0.216   0.073
    1UNL    C18   22  -0.043  -0.210   0.063
    1UNL     N2   23  -0.116  -0.100   0.093
    1UNL    C19   24  -0.262  -0.110   0.072
    1UNL    C20   25  -0.317   0.005  -0.024
    1UNL     H1   26  -0.448  -0.169  -0.313
    1UNL     H2   27  -0.526  -0.126  -0.158
    1UNL     H3   28  -0.389  -0.246  -0.160
    1UNL     H4   29  -0.353   0.056  -0.245
    1UNL     H5   30  -0.025  -0.006  -0.290
    1UNL     H6   31  -0.268   0.223  -0.046
    1UNL     H7   32  -0.226   0.127   0.190
    1UNL     H8   33  -0.073   0.223   0.128
    1UNL     H9   34   0.118   0.218   0.028
    1UNL    H10   35   0.414   0.259   0.017
    1UNL    H11   36   0.616   0.146  -0.061
    1UNL    H12   37   0.617  -0.097  -0.042
    1UNL    H13   38   0.420  -0.226   0.012
    1UNL    H14   39   0.148  -0.303   0.053
    1UNL    H15   40  -0.107  -0.296   0.037
    1UNL    H16   41  -0.276  -0.209   0.029
    1UNL    H17   42  -0.293  -0.099   0.173
    1UNL    H18   43  -0.415   0.027   0.015
   0.00000   0.00000   0.00000   0.00000   0.00000   0.00000   0.00000   0.00000   0.00000
Generated with MDTraj, t= 79.0
 43
    1UNL     C1    1  -0.464  -0.127  -0.188
    1UNL     C2    2  -0.350  -0.028  -0.162
    1UNL     O1    3  -0.230  -0.063  -0.240
    1UNL     C3    4  -0.135   0.026  -0.239
    1UNL     C4    5  -0.110   0.119  -0.145
    1UNL     C5    6  -0.000   0.219  -0.162
    1UNL     O2    7   0.007   0.312  -0.078
    1UNL     O3    8   0.071   0.206  -0.264
    1UNL     C6    9  -0.217   0.126  -0.020
    1UNL     C7   10  -0.143   0.131   0.110
    1UNL     C8   11  -0.058   0.009   0.108
    1UNL     C9   12   0.083   0.019   0.108
    1UNL     N1   13   0.169   0.132   0.091
    1UNL    C10   14   0.298   0.094   0.057
    1UNL    C11   15   0.414   0.174   0.031
    1UNL    C12   16   0.528   0.109  -0.014
    1UNL    C13   17   0.526  -0.030  -0.015
    1UNL    C14   18   0.422  -0.107   0.024
    1UNL    C15   19   0.299  -0.048   0.059
    1UNL    C16   20   0.169  -0.093   0.088
    1UNL    C17   21   0.110  -0.221   0.083
    1UNL    C18   22  -0.020  -0.226   0.076
    1UNL     N2   23  -0.107  -0.117   0.093
    1UNL    C19   24  -0.256  -0.122   0.046
    1UNL    C20   25  -0.313   0.003  -0.021
    1UNL     H1   26  -0.469  -0.135  -0.301
    1UNL     H2   27  -0.566  -0.102  -0.157
    1UNL     H3   28  -0.438  -0.225  -0.147
    1UNL     H4   29  -0.386   0.078  -0.203
    1UNL     H5   30  -0.079   0.017  -0.338
    1UNL     H6   31  -0.275   0.218  -0.037
    1UNL     H7   32  -0.207   0.111   0.210
    1UNL     H8   33  -0.073   0.219   0.131
    1UNL     H9   34   0.129   0.217   0.045
    1UNL    H10   35   0.400   0.284   0.025
    1UNL    H11   36   0.623   0.164  -0.018
    1UNL    H12   37   0.615  -0.080  -0.055
    1UNL    H13   38   0.427  -0.212   0.022
    1UNL    H14   39   0.170  -0.303   0.038
    1UNL    H15   40  -0.075  -0.317   0.064
    1UNL    H16   41  -0.247  -0.192  -0.037
    1UNL    H17   42  -0.322  -0.152   0.126
    1UNL    H18   43  -0.404   0.019   0.035
   0.00000   0.00000   0.00000   0.00000   0.00000   0.00000   0.00000   0.00000   0.00000
Generated with MDTraj, t= 80.0
 43
    1UNL     C1    1  -0.493  -0.119  -0.157
    1UNL     C2    2  -0.381  -0.016  -0.155
    1UNL     O1    3  -0.278  -0.049  -0.255
    1UNL     C3    4  -0.172   0.030  -0.256
    1UNL     C4    5  -0.126   0.116  -0.161
    1UNL     C5    6  -0.014   0.206  -0.173
    1UNL     O2    7   0.005   0.293  -0.083
    1UNL     O3    8   0.057   0.198  -0.276
    1UNL     C6    9  -0.209   0.116  -0.030
    1UNL     C7   10  -0.134   0.124   0.096
    1UNL     C8   11  -0.038   0.011   0.091
    1UNL     C9   12   0.096   0.028   0.110
    1UNL     N1   13   0.179   0.139   0.113
    1UNL    C10   14   0.315   0.097   0.089
    1UNL    C11   15   0.419   0.172   0.042
    1UNL    C12   16   0.537   0.105   0.008
    1UNL    C13   17   0.544  -0.035   0.007
    1UNL    C14   18   0.439  -0.110   0.050
    1UNL    C15   19   0.318  -0.043   0.082
    1UNL    C16   20   0.180  -0.083   0.092
    1UNL    C17   21   0.124  -0.213   0.077
    1UNL    C18   22  -0.010  -0.223   0.060
    1UNL     N2   23  -0.092  -0.112   0.056
    1UNL    C19   24  -0.241  -0.131   0.020
    1UNL    C20   25  -0.314   0.001  -0.022
    1UNL     H1   26  -0.547  -0.125  -0.258
    1UNL     H2   27  -0.575  -0.106  -0.084
    1UNL     H3   28  -0.452  -0.215  -0.135
    1UNL     H4   29  -0.418   0.092  -0.186
    1UNL     H5   30  -0.119   0.017  -0.353
    1UNL     H6   31  -0.270   0.207  -0.045
    1UNL     H7   32  -0.204   0.114   0.188
    1UNL     H8   33  -0.069   0.220   0.117
    1UNL     H9   34   0.143   0.220   0.064
    1UNL    H10   35   0.410   0.274   0.028
    1UNL    H11   36   0.621   0.158  -0.034
    1UNL    H12   37   0.636  -0.085  -0.028
    1UNL    H13   38   0.436  -0.217   0.032
    1UNL    H14   39   0.188  -0.297   0.080
    1UNL    H15   40  -0.064  -0.314   0.039
    1UNL    H16   41  -0.242  -0.207  -0.058
    1UNL    H17   42  -0.283  -0.166   0.114
    1UNL    H18   43  -0.381   0.014   0.061
   0.00000   0.00000   0.00000   0.00000   0.00000   0.00000   0.00000   0.00000   0.00000
Generated with MDTraj, t= 81.0
 43
    1UNL     C1    1  -0.507  -0.126  -0.138
    1UNL     C2    2  -0.399  -0.015  -0.146
    1UNL     O1    3  -0.319  -0.031  -0.256
    1UNL     C3    4  -0.213   0.063  -0.262
    1UNL     C4    5  -0.155   0.132  -0.160
    1UNL     C5    6  -0.034   0.200  -0.186
    1UNL     O2    7   0.005   0.289  -0.108
    1UNL     O3    8   0.036   0.167  -0.286
    1UNL     C6    9  -0.221   0.127  -0.023
    1UNL     C7   10  -0.125   0.123   0.094
    1UNL     C8   11  -0.028   0.012   0.076
    1UNL     C9   12   0.111   0.020   0.085
    1UNL     N1   13   0.187   0.137   0.095
    1UNL    C10   14   0.323   0.101   0.080
    1UNL    C11   15   0.441   0.170   0.054
    1UNL    C12   16   0.564   0.108   0.058
    1UNL    C13   17   0.567  -0.031   0.073
    1UNL    C14   18   0.453  -0.106   0.064
    1UNL    C15   19   0.326  -0.041   0.072
    1UNL    C16   20   0.193  -0.095   0.082
    1UNL    C17   21   0.127  -0.223   0.071
    1UNL    C18   22  -0.009  -0.230   0.051
    1UNL     N2   23  -0.079  -0.109   0.044
    1UNL    C19   24  -0.217  -0.134  -0.003
    1UNL    C20   25  -0.311  -0.004  -0.013
    1UNL     H1   26  -0.580  -0.137  -0.224
    1UNL     H2   27  -0.569  -0.109  -0.047
    1UNL     H3   28  -0.454  -0.217  -0.116
    1UNL     H4   29  -0.450   0.092  -0.164
    1UNL     H5   30  -0.150   0.057  -0.345
    1UNL     H6   31  -0.287   0.216  -0.031
    1UNL     H7   32  -0.165   0.117   0.199
    1UNL     H8   33  -0.062   0.223   0.094
    1UNL     H9   34   0.152   0.228   0.069
    1UNL    H10   35   0.440   0.282   0.054
    1UNL    H11   36   0.650   0.170   0.041
    1UNL    H12   37   0.657  -0.083   0.087
    1UNL    H13   38   0.443  -0.215   0.059
    1UNL    H14   39   0.182  -0.311   0.099
    1UNL    H15   40  -0.049  -0.322   0.017
    1UNL    H16   41  -0.195  -0.170  -0.106
    1UNL    H17   42  -0.254  -0.214   0.061
    1UNL    H18   43  -0.373  -0.009   0.074
   0.00000   0.00000   0.00000   0.00000   0.00000   0.00000   0.00000   0.00000   0.00000
Generated with MDTraj, t= 82.0
 43
    1UNL     C1    1  -0.507  -0.128  -0.100
    1UNL     C2    2  -0.407  -0.013  -0.119
    1UNL     O1    3  -0.355  -0.009  -0.256
    1UNL     C3    4  -0.239   0.071  -0.272
    1UNL     C4    5  -0.168   0.128  -0.171
    1UNL     C5    6  -0.041   0.197  -0.203
    1UNL     O2    7  -0.000   0.280  -0.117
    1UNL     O3    8   0.013   0.176  -0.317
    1UNL     C6    9  -0.217   0.124  -0.027
    1UNL     C7   10  -0.103   0.122   0.081
    1UNL     C8   11  -0.016   0.003   0.060
    1UNL     C9   12   0.121   0.022   0.056
    1UNL     N1   13   0.200   0.136   0.059
    1UNL    C10   14   0.333   0.098   0.070
    1UNL    C11   15   0.442   0.176   0.080
    1UNL    C12   16   0.562   0.108   0.110
    1UNL    C13   17   0.568  -0.035   0.121
    1UNL    C14   18   0.461  -0.115   0.096
    1UNL    C15   19   0.337  -0.045   0.085
    1UNL    C16   20   0.197  -0.095   0.068
    1UNL    C17   21   0.140  -0.220   0.058
    1UNL    C18   22   0.006  -0.234   0.028
    1UNL     N2   23  -0.074  -0.116   0.032
    1UNL    C19   24  -0.221  -0.131  -0.005
    1UNL    C20   25  -0.302  -0.005  -0.004
    1UNL     H1   26  -0.588  -0.114  -0.172
    1UNL     H2   27  -0.550  -0.135   0.004
    1UNL     H3   28  -0.446  -0.219  -0.120
    1UNL     H4   29  -0.464   0.090  -0.099
    1UNL     H5   30  -0.205   0.100  -0.370
    1UNL     H6   31  -0.279   0.214  -0.010
    1UNL     H7   32  -0.145   0.117   0.185
    1UNL     H8   33  -0.042   0.216   0.091
    1UNL     H9   34   0.167   0.229   0.033
    1UNL    H10   35   0.433   0.282   0.080
    1UNL    H11   36   0.649   0.168   0.141
    1UNL    H12   37   0.675  -0.074   0.122
    1UNL    H13   38   0.459  -0.218   0.113
    1UNL    H14   39   0.209  -0.301   0.083
    1UNL    H15   40  -0.044  -0.332   0.018
    1UNL    H16   41  -0.220  -0.176  -0.106
    1UNL    H17   42  -0.262  -0.200   0.069
    1UNL    H18   43  -0.352   0.006   0.091
   0.00000   0.00000   0.00000   0.00000   0.00000   0.00000   0.00000   0.00000   0.00000
Generated with MDTraj, t= 83.0
 43
    1UNL     C1    1  -0.508  -0.118  -0.083
    1UNL     C2    2  -0.410  -0.009  -0.109
    1UNL     O1    3  -0.358  -0.023  -0.243
    1UNL     C3    4  -0.259   0.058  -0.271
    1UNL     C4    5  -0.178   0.120  -0.177
    1UNL     C5    6  -0.063   0.198  -0.223
    1UNL     O2    7   0.006   0.260  -0.138
    1UNL     O3    8  -0.049   0.207  -0.349
    1UNL     C6    9  -0.221   0.126  -0.030
    1UNL     C7   10  -0.100   0.133   0.077
    1UNL     C8   11  -0.014   0.013   0.050
    1UNL     C9   12   0.128   0.024   0.057
    1UNL     N1   13   0.208   0.137   0.056
    1UNL    C10   14   0.341   0.095   0.090
    1UNL    C11   15   0.455   0.168   0.113
    1UNL    C12   16   0.570   0.096   0.140
    1UNL    C13   17   0.578  -0.046   0.134
    1UNL    C14   18   0.459  -0.119   0.125
    1UNL    C15   19   0.344  -0.047   0.094
    1UNL    C16   20   0.209  -0.092   0.071
    1UNL    C17   21   0.151  -0.219   0.041
    1UNL    C18   22   0.018  -0.218   0.012
    1UNL     N2   23  -0.063  -0.112   0.025
    1UNL    C19   24  -0.211  -0.128  -0.018
    1UNL    C20   25  -0.293  -0.006  -0.007
    1UNL     H1   26  -0.587  -0.115  -0.157
    1UNL     H2   27  -0.559  -0.108   0.016
    1UNL     H3   28  -0.445  -0.215  -0.083
    1UNL     H4   29  -0.462   0.098  -0.098
    1UNL     H5   30  -0.256   0.081  -0.382
    1UNL     H6   31  -0.285   0.212  -0.008
    1UNL     H7   32  -0.134   0.139   0.185
    1UNL     H8   33  -0.047   0.222   0.067
    1UNL     H9   34   0.185   0.214  -0.011
    1UNL    H10   35   0.460   0.275   0.119
    1UNL    H11   36   0.662   0.147   0.141
    1UNL    H12   37   0.664  -0.099   0.152
    1UNL    H13   38   0.451  -0.231   0.124
    1UNL    H14   39   0.212  -0.303   0.018
    1UNL    H15   40  -0.020  -0.314  -0.006
    1UNL    H16   41  -0.199  -0.152  -0.126
    1UNL    H17   42  -0.254  -0.214   0.034
    1UNL    H18   43  -0.342   0.003   0.090
   0.00000   0.00000   0.00000   0.00000   0.00000   0.00000   0.00000   0.00000   0.00000
Generated with MDTraj, t= 84.0
 43
    1UNL     C1    1  -0.508  -0.121  -0.073
    1UNL     C2    2  -0.413  -0.007  -0.102
    1UNL     O1    3  -0.356  -0.028  -0.239
    1UNL     C3    4  -0.267   0.060  -0.278
    1UNL     C4    5  -0.183   0.123  -0.191
    1UNL     C5    6  -0.090   0.214  -0.251
    1UNL     O2    7  -0.010   0.265  -0.173
    1UNL     O3    8  -0.093   0.227  -0.374
    1UNL     C6    9  -0.210   0.128  -0.046
    1UNL     C7   10  -0.085   0.140   0.050
    1UNL     C8   11  -0.004   0.012   0.054
    1UNL     C9   12   0.132   0.021   0.074
    1UNL     N1   13   0.215   0.135   0.098
    1UNL    C10   14   0.338   0.085   0.120
    1UNL    C11   15   0.457   0.155   0.154
    1UNL    C12   16   0.582   0.091   0.142
    1UNL    C13   17   0.585  -0.047   0.130
    1UNL    C14   18   0.471  -0.121   0.118
    1UNL    C15   19   0.350  -0.054   0.095
    1UNL    C16   20   0.211  -0.101   0.069
    1UNL    C17   21   0.149  -0.223   0.037
    1UNL    C18   22   0.015  -0.228   0.025
    1UNL     N2   23  -0.054  -0.111   0.027
    1UNL    C19   24  -0.195  -0.127  -0.022
    1UNL    C20   25  -0.285   0.003  -0.002
    1UNL     H1   26  -0.596  -0.131  -0.136
    1UNL     H2   27  -0.550  -0.107   0.030
    1UNL     H3   28  -0.449  -0.220  -0.064
    1UNL     H4   29  -0.468   0.097  -0.109
    1UNL     H5   30  -0.254   0.044  -0.389
    1UNL     H6   31  -0.271   0.216  -0.023
    1UNL     H7   32  -0.124   0.159   0.150
    1UNL     H8   33  -0.032   0.226   0.027
    1UNL     H9   34   0.195   0.233   0.070
    1UNL    H10   35   0.451   0.265   0.154
    1UNL    H11   36   0.675   0.150   0.152
    1UNL    H12   37   0.684  -0.103   0.123
    1UNL    H13   38   0.474  -0.224   0.101
    1UNL    H14   39   0.205  -0.316   0.019
    1UNL    H15   40  -0.047  -0.321   0.019
    1UNL    H16   41  -0.199  -0.153  -0.131
    1UNL    H17   42  -0.247  -0.203   0.039
    1UNL    H18   43  -0.329   0.009   0.099
   0.00000   0.00000   0.00000   0.00000   0.00000   0.00000   0.00000   0.00000   0.00000
Generated with MDTraj, t= 85.0
 43
    1UNL     C1    1  -0.493  -0.125  -0.057
    1UNL     C2    2  -0.400  -0.015  -0.095
    1UNL     O1    3  -0.369  -0.036  -0.233
    1UNL     C3    4  -0.274   0.050  -0.282
    1UNL     C4    5  -0.199   0.130  -0.200
    1UNL     C5    6  -0.113   0.225  -0.271
    1UNL     O2    7  -0.054   0.304  -0.200
    1UNL     O3    8  -0.102   0.228  -0.394
    1UNL     C6    9  -0.197   0.124  -0.055
    1UNL     C7   10  -0.060   0.149   0.025
    1UNL     C8   11   0.004   0.023   0.045
    1UNL     C9   12   0.136   0.021   0.087
    1UNL     N1   13   0.213   0.124   0.144
    1UNL    C10   14   0.345   0.082   0.138
    1UNL    C11   15   0.467   0.146   0.168
    1UNL    C12   16   0.580   0.075   0.154
    1UNL    C13   17   0.584  -0.062   0.126
    1UNL    C14   18   0.464  -0.132   0.103
    1UNL    C15   19   0.351  -0.054   0.102
    1UNL    C16   20   0.215  -0.097   0.079
    1UNL    C17   21   0.157  -0.220   0.050
    1UNL    C18   22   0.023  -0.222   0.020
    1UNL     N2   23  -0.050  -0.105   0.013
    1UNL    C19   24  -0.192  -0.128  -0.021
    1UNL    C20   25  -0.277   0.002  -0.006
    1UNL     H1   26  -0.582  -0.102  -0.121
    1UNL     H2   27  -0.535  -0.121   0.047
    1UNL     H3   28  -0.455  -0.226  -0.079
    1UNL     H4   29  -0.455   0.089  -0.110
    1UNL     H5   30  -0.260   0.047  -0.385
    1UNL     H6   31  -0.251   0.212  -0.017
    1UNL     H7   32  -0.069   0.203   0.112
    1UNL     H8   33   0.002   0.210  -0.034
    1UNL     H9   34   0.187   0.224   0.134
    1UNL    H10   35   0.464   0.247   0.192
    1UNL    H11   36   0.673   0.106   0.192
    1UNL    H12   37   0.672  -0.118   0.108
    1UNL    H13   38   0.458  -0.241   0.083
    1UNL    H14   39   0.204  -0.309   0.081
    1UNL    H15   40  -0.028  -0.312   0.003
    1UNL    H16   41  -0.201  -0.155  -0.129
    1UNL    H17   42  -0.236  -0.209   0.041
    1UNL    H18   43  -0.307   0.007   0.101
   0.00000   0.00000   0.00000   0.00000   0.00000   0.00000   0.00000   0.00000   0.00000
Generated with MDTraj, t= 86.0
 43
    1UNL     C1    1  -0.504  -0.124  -0.045
    1UNL     C2    2  -0.402  -0.015  -0.087
    1UNL     O1    3  -0.372  -0.038  -0.226
    1UNL     C3    4  -0.281   0.052  -0.278
    1UNL     C4    5  -0.202   0.135  -0.196
    1UNL     C5    6  -0.126   0.237  -0.273
    1UNL     O2    7  -0.096   0.340  -0.212
    1UNL     O3    8  -0.107   0.215  -0.395
    1UNL     C6    9  -0.205   0.129  -0.050
    1UNL     C7   10  -0.067   0.147   0.016
    1UNL     C8   11   0.010   0.021   0.028
    1UNL     C9   12   0.143   0.022   0.075
    1UNL     N1   13   0.230   0.125   0.117
    1UNL    C10   14   0.355   0.076   0.134
    1UNL    C11   15   0.479   0.143   0.154
    1UNL    C12   16   0.586   0.067   0.181
    1UNL    C13   17   0.584  -0.071   0.164
    1UNL    C14   18   0.469  -0.139   0.126
    1UNL    C15   19   0.356  -0.063   0.110
    1UNL    C16   20   0.213  -0.097   0.085
    1UNL    C17   21   0.162  -0.228   0.057
    1UNL    C18   22   0.034  -0.225   0.004
    1UNL     N2   23  -0.039  -0.105  -0.008
    1UNL    C19   24  -0.180  -0.124  -0.036
    1UNL    C20   25  -0.269   0.001  -0.002
    1UNL     H1   26  -0.585  -0.112  -0.127
    1UNL     H2   27  -0.562  -0.110   0.050
    1UNL     H3   28  -0.461  -0.221  -0.053
    1UNL     H4   29  -0.460   0.085  -0.084
    1UNL     H5   30  -0.272   0.074  -0.381
    1UNL     H6   31  -0.261   0.211  -0.003
    1UNL     H7   32  -0.079   0.181   0.110
    1UNL     H8   33  -0.005   0.221  -0.028
    1UNL     H9   34   0.199   0.223   0.120
    1UNL    H10   35   0.468   0.247   0.194
    1UNL    H11   36   0.681   0.121   0.201
    1UNL    H12   37   0.671  -0.128   0.196
    1UNL    H13   38   0.467  -0.246   0.112
    1UNL    H14   39   0.217  -0.319   0.086
    1UNL    H15   40  -0.020  -0.319  -0.020
    1UNL    H16   41  -0.193  -0.152  -0.144
    1UNL    H17   42  -0.214  -0.213   0.023
    1UNL    H18   43  -0.285  -0.011   0.109
   0.00000   0.00000   0.00000   0.00000   0.00000   0.00000   0.00000   0.00000   0.00000
Generated with MDTraj, t= 87.0
 43
    1UNL     C1    1  -0.494  -0.136  -0.025
    1UNL     C2    2  -0.412  -0.021  -0.083
    1UNL     O1    3  -0.384  -0.034  -0.217
    1UNL     C3    4  -0.303   0.061  -0.277
    1UNL     C4    5  -0.212   0.138  -0.208
    1UNL     C5    6  -0.130   0.246  -0.270
    1UNL     O2    7  -0.078   0.325  -0.190
    1UNL     O3    8  -0.116   0.249  -0.394
    1UNL     C6    9  -0.212   0.128  -0.057
    1UNL     C7   10  -0.062   0.145   0.006
    1UNL     C8   11   0.025   0.015   0.005
    1UNL     C9   12   0.159   0.015   0.041
    1UNL     N1   13   0.241   0.124   0.052
    1UNL    C10   14   0.356   0.075   0.110
    1UNL    C11   15   0.476   0.137   0.149
    1UNL    C12   16   0.576   0.072   0.211
    1UNL    C13   17   0.575  -0.068   0.219
    1UNL    C14   18   0.469  -0.138   0.161
    1UNL    C15   19   0.358  -0.066   0.118
    1UNL    C16   20   0.229  -0.108   0.070
    1UNL    C17   21   0.162  -0.227   0.049
    1UNL    C18   22   0.032  -0.222   0.011
    1UNL     N2   23  -0.035  -0.103  -0.006
    1UNL    C19   24  -0.178  -0.125  -0.038
    1UNL    C20   25  -0.272  -0.002  -0.009
    1UNL     H1   26  -0.600  -0.145  -0.070
    1UNL     H2   27  -0.510  -0.111   0.084
    1UNL     H3   28  -0.447  -0.232  -0.026
    1UNL     H4   29  -0.472   0.071  -0.059
    1UNL     H5   30  -0.326   0.065  -0.388
    1UNL     H6   31  -0.263   0.213  -0.009
    1UNL     H7   32  -0.057   0.177   0.107
    1UNL     H8   33  -0.007   0.218  -0.044
    1UNL     H9   34   0.204   0.218   0.063
    1UNL    H10   35   0.468   0.242   0.147
    1UNL    H11   36   0.658   0.126   0.253
    1UNL    H12   37   0.671  -0.122   0.239
    1UNL    H13   38   0.471  -0.244   0.165
    1UNL    H14   39   0.220  -0.316   0.036
    1UNL    H15   40  -0.017  -0.314  -0.005
    1UNL    H16   41  -0.172  -0.147  -0.148
    1UNL    H17   42  -0.214  -0.224   0.002
    1UNL    H18   43  -0.283  -0.003   0.104
   0.00000   0.00000   0.00000   0.00000   0.00000   0.00000   0.00000   0.00000   0.00000
Generated with MDTraj, t= 88.0
 43
    1UNL     C1    1  -0.489  -0.145  -0.034
    1UNL     C2    2  -0.405  -0.026  -0.070
    1UNL     O1    3  -0.397  -0.015  -0.221
    1UNL     C3    4  -0.313   0.084  -0.260
    1UNL     C4    5  -0.217   0.155  -0.193
    1UNL     C5    6  -0.139   0.254  -0.277
    1UNL     O2    7  -0.046   0.317  -0.220
    1UNL     O3    8  -0.166   0.264  -0.402
    1UNL     C6    9  -0.200   0.126  -0.048
    1UNL     C7   10  -0.048   0.134   0.000
    1UNL     C8   11   0.026   0.006   0.003
    1UNL     C9   12   0.165   0.011   0.024
    1UNL     N1   13   0.248   0.122   0.041
    1UNL    C10   14   0.359   0.069   0.111
    1UNL    C11   15   0.471   0.147   0.147
    1UNL    C12   16   0.567   0.078   0.217
    1UNL    C13   17   0.563  -0.062   0.231
    1UNL    C14   18   0.454  -0.139   0.189
    1UNL    C15   19   0.351  -0.070   0.127
    1UNL    C16   20   0.231  -0.108   0.060
    1UNL    C17   21   0.170  -0.235   0.050
    1UNL    C18   22   0.037  -0.234   0.023
    1UNL     N2   23  -0.030  -0.119   0.012
    1UNL    C19   24  -0.169  -0.126  -0.052
    1UNL    C20   25  -0.257  -0.011  -0.009
    1UNL     H1   26  -0.596  -0.125  -0.063
    1UNL     H2   27  -0.486  -0.173   0.074
    1UNL     H3   28  -0.459  -0.237  -0.090
    1UNL     H4   29  -0.459   0.060  -0.028
    1UNL     H5   30  -0.331   0.094  -0.369
    1UNL     H6   31  -0.249   0.204   0.012
    1UNL     H7   32  -0.047   0.180   0.103
    1UNL     H8   33   0.004   0.201  -0.061
    1UNL     H9   34   0.226   0.220   0.035
    1UNL    H10   35   0.481   0.252   0.125
    1UNL    H11   36   0.645   0.136   0.261
    1UNL    H12   37   0.656  -0.105   0.248
    1UNL    H13   38   0.463  -0.249   0.182
    1UNL    H14   39   0.228  -0.326   0.051
    1UNL    H15   40  -0.012  -0.331   0.006
    1UNL    H16   41  -0.158  -0.136  -0.163
    1UNL    H17   42  -0.211  -0.226  -0.022
    1UNL    H18   43  -0.265  -0.018   0.105
   0.00000   0.00000   0.00000   0.00000   0.00000   0.00000   0.00000   0.00000   0.00000
Generated with MDTraj, t= 89.0
 43
    1UNL     C1    1  -0.487  -0.141  -0.019
    1UNL     C2    2  -0.395  -0.030  -0.063
    1UNL     O1    3  -0.412  -0.008  -0.208
    1UNL     C3    4  -0.320   0.074  -0.269
    1UNL     C4    5  -0.217   0.145  -0.211
    1UNL     C5    6  -0.151   0.251  -0.284
    1UNL     O2    7  -0.053   0.317  -0.236
    1UNL     O3    8  -0.199   0.283  -0.397
    1UNL     C6    9  -0.194   0.122  -0.070
    1UNL     C7   10  -0.042   0.139  -0.031
    1UNL     C8   11   0.031   0.010  -0.003
    1UNL     C9   12   0.157   0.011   0.051
    1UNL     N1   13   0.240   0.119   0.077
    1UNL    C10   14   0.359   0.076   0.138
    1UNL    C11   15   0.475   0.143   0.163
    1UNL    C12   16   0.586   0.065   0.208
    1UNL    C13   17   0.575  -0.074   0.219
    1UNL    C14   18   0.461  -0.141   0.185
    1UNL    C15   19   0.354  -0.069   0.131
    1UNL    C16   20   0.223  -0.109   0.086
    1UNL    C17   21   0.169  -0.234   0.071
    1UNL    C18   22   0.042  -0.231   0.021
    1UNL     N2   23  -0.023  -0.113  -0.015
    1UNL    C19   24  -0.155  -0.123  -0.075
    1UNL    C20   25  -0.249  -0.018  -0.020
    1UNL     H1   26  -0.585  -0.115  -0.057
    1UNL     H2   27  -0.487  -0.148   0.094
    1UNL     H3   28  -0.455  -0.246  -0.056
    1UNL     H4   29  -0.440   0.062  -0.033
    1UNL     H5   30  -0.340   0.095  -0.369
    1UNL     H6   31  -0.248   0.198  -0.010
    1UNL     H7   32  -0.031   0.208   0.061
    1UNL     H8   33   0.014   0.195  -0.112
    1UNL     H9   34   0.230   0.214   0.049
    1UNL    H10   35   0.480   0.251   0.165
    1UNL    H11   36   0.679   0.113   0.239
    1UNL    H12   37   0.658  -0.133   0.273
    1UNL    H13   38   0.475  -0.242   0.160
    1UNL    H14   39   0.202  -0.328   0.116
    1UNL    H15   40  -0.007  -0.322  -0.006
    1UNL    H16   41  -0.139  -0.106  -0.184
    1UNL    H17   42  -0.207  -0.222  -0.065
    1UNL    H18   43  -0.253  -0.025   0.095
   0.00000   0.00000   0.00000   0.00000   0.00000   0.00000   0.00000   0.00000   0.00000
Generated with MDTraj, t= 90.0
 43
    1UNL     C1    1  -0.464  -0.147  -0.009
    1UNL     C2    2  -0.397  -0.017  -0.065
    1UNL     O1    3  -0.401  -0.028  -0.206
    1UNL     C3    4  -0.326   0.072  -0.268
    1UNL     C4    5  -0.228   0.153  -0.221
    1UNL     C5    6  -0.178   0.261  -0.300
    1UNL     O2    7  -0.093   0.336  -0.247
    1UNL     O3    8  -0.216   0.276  -0.417
    1UNL     C6    9  -0.185   0.129  -0.082
    1UNL     C7   10  -0.029   0.135  -0.064
    1UNL     C8   11   0.032   0.019   0.009
    1UNL     C9   12   0.156   0.016   0.085
    1UNL     N1   13   0.237   0.123   0.117
    1UNL    C10   14   0.363   0.056   0.151
    1UNL    C11   15   0.477   0.123   0.181
    1UNL    C12   16   0.593   0.054   0.203
    1UNL    C13   17   0.591  -0.083   0.211
    1UNL    C14   18   0.477  -0.152   0.179
    1UNL    C15   19   0.357  -0.081   0.140
    1UNL    C16   20   0.227  -0.107   0.105
    1UNL    C17   21   0.164  -0.228   0.075
    1UNL    C18   22   0.043  -0.224   0.008
    1UNL     N2   23  -0.019  -0.102  -0.026
    1UNL    C19   24  -0.156  -0.115  -0.075
    1UNL    C20   25  -0.245  -0.000  -0.023
    1UNL     H1   26  -0.562  -0.165  -0.056
    1UNL     H2   27  -0.471  -0.142   0.103
    1UNL     H3   28  -0.392  -0.235  -0.021
    1UNL     H4   29  -0.453   0.069  -0.053
    1UNL     H5   30  -0.341   0.081  -0.372
    1UNL     H6   31  -0.231   0.208  -0.016
    1UNL     H7   32   0.003   0.234  -0.012
    1UNL     H8   33   0.015   0.148  -0.170
    1UNL     H9   34   0.238   0.216   0.078
    1UNL    H10   35   0.474   0.230   0.194
    1UNL    H11   36   0.667   0.111   0.257
    1UNL    H12   37   0.676  -0.136   0.229
    1UNL    H13   38   0.462  -0.263   0.177
    1UNL    H14   39   0.201  -0.320   0.110
    1UNL    H15   40  -0.009  -0.317  -0.014
    1UNL    H16   41  -0.165  -0.111  -0.185
    1UNL    H17   42  -0.200  -0.211  -0.039
    1UNL    H18   43  -0.239   0.009   0.092
   0.00000   0.00000   0.00000   0.00000   0.00000   0.00000   0.00000   0.00000   0.00000
Generated with MDTraj, t= 91.0
 43
    1UNL     C1    1  -0.469  -0.131   0.006
    1UNL     C2    2  -0.385  -0.023  -0.070
    1UNL     O1    3  -0.390  -0.029  -0.208
    1UNL     C3    4  -0.323   0.067  -0.268
    1UNL     C4    5  -0.232   0.154  -0.212
    1UNL     C5    6  -0.180   0.263  -0.294
    1UNL     O2    7  -0.107   0.348  -0.235
    1UNL     O3    8  -0.206   0.263  -0.416
    1UNL     C6    9  -0.189   0.133  -0.067
    1UNL     C7   10  -0.034   0.140  -0.048
    1UNL     C8   11   0.040   0.017  -0.010
    1UNL     C9   12   0.163   0.015   0.051
    1UNL     N1   13   0.249   0.123   0.084
    1UNL    C10   14   0.373   0.067   0.130
    1UNL    C11   15   0.480   0.132   0.189
    1UNL    C12   16   0.586   0.053   0.238
    1UNL    C13   17   0.576  -0.089   0.224
    1UNL    C14   18   0.465  -0.154   0.183
    1UNL    C15   19   0.358  -0.077   0.126
    1UNL    C16   20   0.223  -0.108   0.087
    1UNL    C17   21   0.156  -0.232   0.082
    1UNL    C18   22   0.040  -0.226   0.012
    1UNL     N2   23  -0.018  -0.105  -0.035
    1UNL    C19   24  -0.153  -0.122  -0.076
    1UNL    C20   25  -0.240  -0.010  -0.023
    1UNL     H1   26  -0.578  -0.112  -0.012
    1UNL     H2   27  -0.451  -0.151   0.116
    1UNL     H3   28  -0.448  -0.232  -0.032
    1UNL     H4   29  -0.430   0.066  -0.045
    1UNL     H5   30  -0.349   0.068  -0.378
    1UNL     H6   31  -0.243   0.214  -0.012
    1UNL     H7   32  -0.021   0.223   0.033
    1UNL     H8   33   0.017   0.188  -0.143
    1UNL     H9   34   0.245   0.216   0.044
    1UNL    H10   35   0.474   0.239   0.211
    1UNL    H11   36   0.669   0.104   0.288
    1UNL    H12   37   0.674  -0.140   0.241
    1UNL    H13   38   0.462  -0.258   0.202
    1UNL    H14   39   0.208  -0.329   0.094
    1UNL    H15   40  -0.016  -0.317   0.006
    1UNL    H16   41  -0.160  -0.126  -0.186
    1UNL    H17   42  -0.197  -0.218  -0.039
    1UNL    H18   43  -0.237  -0.018   0.092
   0.00000   0.00000   0.00000   0.00000   0.00000   0.00000   0.00000   0.00000   0.00000
Generated with MDTraj, t= 92.0
 43
    1UNL     C1    1  -0.471  -0.125   0.003
    1UNL     C2    2  -0.388  -0.019  -0.069
    1UNL     O1    3  -0.404  -0.017  -0.213
    1UNL     C3    4  -0.333   0.078  -0.264
    1UNL     C4    5  -0.234   0.156  -0.206
    1UNL     C5    6  -0.162   0.261  -0.282
    1UNL     O2    7  -0.085   0.337  -0.218
    1UNL     O3    8  -0.187   0.267  -0.401
    1UNL     C6    9  -0.188   0.122  -0.065
    1UNL     C7   10  -0.036   0.133  -0.036
    1UNL     C8   11   0.039   0.002  -0.014
    1UNL     C9   12   0.170   0.008   0.026
    1UNL     N1   13   0.256   0.117   0.044
    1UNL    C10   14   0.369   0.071   0.116
    1UNL    C11   15   0.485   0.136   0.161
    1UNL    C12   16   0.570   0.064   0.239
    1UNL    C13   17   0.551  -0.073   0.264
    1UNL    C14   18   0.443  -0.135   0.207
    1UNL    C15   19   0.356  -0.067   0.125
    1UNL    C16   20   0.240  -0.107   0.071
    1UNL    C17   21   0.175  -0.231   0.044
    1UNL    C18   22   0.048  -0.236   0.002
    1UNL     N2   23  -0.022  -0.121  -0.022
    1UNL    C19   24  -0.167  -0.137  -0.058
    1UNL    C20   25  -0.245  -0.014  -0.015
    1UNL     H1   26  -0.571  -0.136  -0.052
    1UNL     H2   27  -0.483  -0.130   0.116
    1UNL     H3   28  -0.430  -0.223  -0.009
    1UNL     H4   29  -0.426   0.071  -0.033
    1UNL     H5   30  -0.367   0.104  -0.367
    1UNL     H6   31  -0.239   0.205  -0.009
    1UNL     H7   32  -0.019   0.208   0.051
    1UNL     H8   33   0.005   0.189  -0.131
    1UNL     H9   34   0.229   0.217   0.045
    1UNL    H10   35   0.489   0.242   0.152
    1UNL    H11   36   0.670   0.104   0.246
    1UNL    H12   37   0.625  -0.123   0.326
    1UNL    H13   38   0.427  -0.242   0.224
    1UNL    H14   39   0.241  -0.312   0.051
    1UNL    H15   40  -0.007  -0.331  -0.006
    1UNL    H16   41  -0.182  -0.156  -0.166
    1UNL    H17   42  -0.207  -0.230  -0.013
    1UNL    H18   43  -0.235  -0.010   0.100
   0.00000   0.00000   0.00000   0.00000   0.00000   0.00000   0.00000   0.00000   0.00000
Generated with MDTraj, t= 93.0
 43
    1UNL     C1    1  -0.462  -0.133  -0.006
    1UNL     C2    2  -0.396  -0.009  -0.064
    1UNL     O1    3  -0.402  -0.009  -0.208
    1UNL     C3    4  -0.321   0.082  -0.263
    1UNL     C4    5  -0.219   0.152  -0.203
    1UNL     C5    6  -0.152   0.259  -0.278
    1UNL     O2    7  -0.071   0.325  -0.214
    1UNL     O3    8  -0.194   0.264  -0.391
    1UNL     C6    9  -0.182   0.126  -0.054
    1UNL     C7   10  -0.031   0.128  -0.033
    1UNL     C8   11   0.034  -0.001  -0.015
    1UNL     C9   12   0.170   0.001   0.013
    1UNL     N1   13   0.253   0.112   0.036
    1UNL    C10   14   0.356   0.066   0.115
    1UNL    C11   15   0.464   0.145   0.167
    1UNL    C12   16   0.562   0.081   0.238
    1UNL    C13   17   0.563  -0.059   0.254
    1UNL    C14   18   0.465  -0.135   0.194
    1UNL    C15   19   0.349  -0.075   0.132
    1UNL    C16   20   0.232  -0.117   0.065
    1UNL    C17   21   0.163  -0.244   0.055
    1UNL    C18   22   0.038  -0.238   0.020
    1UNL     N2   23  -0.030  -0.121  -0.022
    1UNL    C19   24  -0.164  -0.123  -0.083
    1UNL    C20   25  -0.252  -0.010  -0.015
    1UNL     H1   26  -0.572  -0.147  -0.035
    1UNL     H2   27  -0.441  -0.141   0.105
    1UNL     H3   28  -0.411  -0.221  -0.038
    1UNL     H4   29  -0.451   0.078  -0.039
    1UNL     H5   30  -0.344   0.110  -0.362
    1UNL     H6   31  -0.234   0.206   0.005
    1UNL     H7   32  -0.002   0.194   0.058
    1UNL     H8   33   0.021   0.176  -0.122
    1UNL     H9   34   0.220   0.211   0.032
    1UNL    H10   35   0.461   0.248   0.132
    1UNL    H11   36   0.634   0.148   0.285
    1UNL    H12   37   0.656  -0.094   0.286
    1UNL    H13   38   0.478  -0.240   0.209
    1UNL    H14   39   0.196  -0.330   0.118
    1UNL    H15   40  -0.023  -0.324   0.026
    1UNL    H16   41  -0.153  -0.118  -0.194
    1UNL    H17   42  -0.204  -0.226  -0.074
    1UNL    H18   43  -0.256  -0.034   0.097
   0.00000   0.00000   0.00000   0.00000   0.00000   0.00000   0.00000   0.00000   0.00000
Generated with MDTraj, t= 94.0
 43
    1UNL     C1    1  -0.472  -0.141  -0.018
    1UNL     C2    2  -0.399  -0.015  -0.073
    1UNL     O1    3  -0.412  -0.009  -0.218
    1UNL     C3    4  -0.328   0.079  -0.278
    1UNL     C4    5  -0.225   0.144  -0.210
    1UNL     C5    6  -0.163   0.257  -0.284
    1UNL     O2    7  -0.083   0.323  -0.219
    1UNL     O3    8  -0.205   0.266  -0.399
    1UNL     C6    9  -0.185   0.122  -0.071
    1UNL     C7   10  -0.036   0.131  -0.057
    1UNL     C8   11   0.035   0.009  -0.000
    1UNL     C9   12   0.165   0.012   0.050
    1UNL     N1   13   0.245   0.122   0.086
    1UNL    C10   14   0.367   0.076   0.133
    1UNL    C11   15   0.490   0.133   0.177
    1UNL    C12   16   0.596   0.061   0.222
    1UNL    C13   17   0.581  -0.077   0.227
    1UNL    C14   18   0.464  -0.140   0.185
    1UNL    C15   19   0.358  -0.068   0.137
    1UNL    C16   20   0.232  -0.106   0.093
    1UNL    C17   21   0.170  -0.230   0.058
    1UNL    C18   22   0.040  -0.232   0.008
    1UNL     N2   23  -0.031  -0.114  -0.010
    1UNL    C19   24  -0.167  -0.122  -0.065
    1UNL    C20   25  -0.255  -0.010  -0.018
    1UNL     H1   26  -0.580  -0.134  -0.039
    1UNL     H2   27  -0.437  -0.160   0.087
    1UNL     H3   28  -0.434  -0.228  -0.078
    1UNL     H4   29  -0.455   0.076  -0.055
    1UNL     H5   30  -0.336   0.107  -0.380
    1UNL     H6   31  -0.238   0.205  -0.017
    1UNL     H7   32  -0.001   0.231  -0.012
    1UNL     H8   33   0.001   0.132  -0.161
    1UNL     H9   34   0.237   0.221   0.053
    1UNL    H10   35   0.499   0.238   0.163
    1UNL    H11   36   0.684   0.111   0.265
    1UNL    H12   37   0.660  -0.138   0.285
    1UNL    H13   38   0.459  -0.247   0.194
    1UNL    H14   39   0.216  -0.319   0.094
    1UNL    H15   40  -0.022  -0.320  -0.013
    1UNL    H16   41  -0.165  -0.124  -0.175
    1UNL    H17   42  -0.213  -0.221  -0.049
    1UNL    H18   43  -0.255  -0.008   0.096
   0.00000   0.00000   0.00000   0.00000   0.00000   0.00000   0.00000   0.00000   0.00000
Generated with MDTraj, t= 95.0
 43
    1UNL     C1    1  -0.453  -0.141  -0.011
    1UNL     C2    2  -0.382  -0.027  -0.080
    1UNL     O1    3  -0.390  -0.033  -0.221
    1UNL     C3    4  -0.321   0.069  -0.277
    1UNL     C4    5  -0.224   0.152  -0.212
    1UNL     C5    6  -0.174   0.268  -0.296
    1UNL     O2    7  -0.093   0.347  -0.249
    1UNL     O3    8  -0.218   0.269  -0.409
    1UNL     C6    9  -0.183   0.136  -0.067
    1UNL     C7   10  -0.033   0.137  -0.026
    1UNL     C8   11   0.027   0.012   0.011
    1UNL     C9   12   0.154   0.017   0.077
    1UNL     N1   13   0.243   0.127   0.112
    1UNL    C10   14   0.363   0.071   0.143
    1UNL    C11   15   0.484   0.133   0.178
    1UNL    C12   16   0.590   0.046   0.202
    1UNL    C13   17   0.584  -0.093   0.196
    1UNL    C14   18   0.463  -0.151   0.170
    1UNL    C15   19   0.353  -0.069   0.136
    1UNL    C16   20   0.219  -0.103   0.106
    1UNL    C17   21   0.157  -0.227   0.086
    1UNL    C18   22   0.035  -0.231   0.025
    1UNL     N2   23  -0.024  -0.112  -0.024
    1UNL    C19   24  -0.158  -0.119  -0.081
    1UNL    C20   25  -0.245  -0.008  -0.029
    1UNL     H1   26  -0.534  -0.172  -0.075
    1UNL     H2   27  -0.482  -0.113   0.092
    1UNL     H3   28  -0.386  -0.234   0.003
    1UNL     H4   29  -0.440   0.063  -0.059
    1UNL     H5   30  -0.343   0.084  -0.386
    1UNL     H6   31  -0.235   0.218  -0.013
    1UNL     H7   32  -0.019   0.196   0.068
    1UNL     H8   33   0.023   0.187  -0.103
    1UNL     H9   34   0.237   0.214   0.056
    1UNL    H10   35   0.494   0.240   0.173
    1UNL    H11   36   0.686   0.093   0.212
    1UNL    H12   37   0.658  -0.150   0.237
    1UNL    H13   38   0.456  -0.261   0.163
    1UNL    H14   39   0.203  -0.320   0.102
    1UNL    H15   40  -0.011  -0.327   0.025
    1UNL    H16   41  -0.156  -0.113  -0.191
    1UNL    H17   42  -0.205  -0.219  -0.073
    1UNL    H18   43  -0.247  -0.005   0.085
   0.00000   0.00000   0.00000   0.00000   0.00000   0.00000   0.00000   0.00000   0.00000
Generated with MDTraj, t= 96.0
 43
    1UNL     C1    1  -0.475  -0.136  -0.014
    1UNL     C2    2  -0.401  -0.025  -0.082
    1UNL     O1    3  -0.379  -0.034  -0.231
    1UNL     C3    4  -0.315   0.069  -0.281
    1UNL     C4    5  -0.229   0.153  -0.216
    1UNL     C5    6  -0.165   0.266  -0.290
    1UNL     O2    7  -0.091   0.333  -0.219
    1UNL     O3    8  -0.190   0.283  -0.407
    1UNL     C6    9  -0.193   0.124  -0.073
    1UNL     C7   10  -0.046   0.140  -0.040
    1UNL     C8   11   0.030   0.010   0.003
    1UNL     C9   12   0.156   0.016   0.067
    1UNL     N1   13   0.239   0.124   0.096
    1UNL    C10   14   0.368   0.074   0.135
    1UNL    C11   15   0.491   0.134   0.169
    1UNL    C12   16   0.602   0.053   0.200
    1UNL    C13   17   0.586  -0.087   0.208
    1UNL    C14   18   0.465  -0.146   0.177
    1UNL    C15   19   0.357  -0.064   0.147
    1UNL    C16   20   0.225  -0.104   0.096
    1UNL    C17   21   0.168  -0.228   0.080
    1UNL    C18   22   0.037  -0.228   0.024
    1UNL     N2   23  -0.028  -0.111  -0.017
    1UNL    C19   24  -0.174  -0.131  -0.055
    1UNL    C20   25  -0.258  -0.007  -0.021
    1UNL     H1   26  -0.583  -0.141  -0.020
    1UNL     H2   27  -0.443  -0.150   0.091
    1UNL     H3   28  -0.448  -0.237  -0.059
    1UNL     H4   29  -0.463   0.061  -0.053
    1UNL     H5   30  -0.344   0.092  -0.387
    1UNL     H6   31  -0.251   0.195  -0.009
    1UNL     H7   32  -0.040   0.214   0.034
    1UNL     H8   33   0.001   0.180  -0.126
    1UNL     H9   34   0.218   0.217   0.055
    1UNL    H10   35   0.513   0.238   0.149
    1UNL    H11   36   0.702   0.088   0.221
    1UNL    H12   37   0.677  -0.155   0.208
    1UNL    H13   38   0.452  -0.249   0.195
    1UNL    H14   39   0.225  -0.323   0.088
    1UNL    H15   40  -0.025  -0.319   0.012
    1UNL    H16   41  -0.190  -0.164  -0.159
    1UNL    H17   42  -0.221  -0.221  -0.010
    1UNL    H18   43  -0.262  -0.001   0.093
   0.00000   0.00000   0.00000   0.00000   0.00000   0.00000   0.00000   0.00000   0.00000
Generated with MDTraj, t= 97.0
 43
    1UNL     C1    1  -0.477  -0.140  -0.044
    1UNL     C2    2  -0.406  -0.022  -0.079
    1UNL     O1    3  -0.392  -0.015  -0.221
    1UNL     C3    4  -0.310   0.079  -0.274
    1UNL     C4    5  -0.223   0.154  -0.202
    1UNL     C5    6  -0.150   0.261  -0.271
    1UNL     O2    7  -0.072   0.338  -0.210
    1UNL     O3    8  -0.162   0.266  -0.395
    1UNL     C6    9  -0.199   0.126  -0.055
    1UNL     C7   10  -0.050   0.132  -0.018
    1UNL     C8   11   0.021   0.000   0.002
    1UNL     C9   12   0.162   0.005   0.040
    1UNL     N1   13   0.249   0.115   0.052
    1UNL    C10   14   0.372   0.065   0.101
    1UNL    C11   15   0.481   0.139   0.143
    1UNL    C12   16   0.583   0.084   0.218
    1UNL    C13   17   0.582  -0.055   0.234
    1UNL    C14   18   0.479  -0.134   0.181
    1UNL    C15   19   0.364  -0.075   0.122
    1UNL    C16   20   0.224  -0.114   0.076
    1UNL    C17   21   0.156  -0.238   0.074
    1UNL    C18   22   0.024  -0.241   0.032
    1UNL     N2   23  -0.038  -0.122   0.006
    1UNL    C19   24  -0.177  -0.127  -0.055
    1UNL    C20   25  -0.269  -0.012  -0.013
    1UNL     H1   26  -0.573  -0.152  -0.097
    1UNL     H2   27  -0.492  -0.142   0.067
    1UNL     H3   28  -0.428  -0.234  -0.067
    1UNL     H4   29  -0.469   0.064  -0.046
    1UNL     H5   30  -0.315   0.100  -0.377
    1UNL     H6   31  -0.249   0.205   0.004
    1UNL     H7   32  -0.041   0.181   0.071
    1UNL     H8   33  -0.001   0.196  -0.086
    1UNL     H9   34   0.224   0.215   0.054
    1UNL    H10   35   0.475   0.246   0.143
    1UNL    H11   36   0.672   0.142   0.242
    1UNL    H12   37   0.653  -0.104   0.295
    1UNL    H13   38   0.476  -0.246   0.194
    1UNL    H14   39   0.194  -0.331   0.104
    1UNL    H15   40  -0.008  -0.340   0.013
    1UNL    H16   41  -0.165  -0.131  -0.165
    1UNL    H17   42  -0.224  -0.226  -0.047
    1UNL    H18   43  -0.263  -0.017   0.099
   0.00000   0.00000   0.00000   0.00000   0.00000   0.00000   0.00000   0.00000   0.00000
Generated with MDTraj, t= 98.0
 43
    1UNL     C1    1  -0.488  -0.145  -0.033
    1UNL     C2    2  -0.405  -0.021  -0.072
    1UNL     O1    3  -0.403  -0.013  -0.217
    1UNL     C3    4  -0.297   0.065  -0.273
    1UNL     C4    5  -0.205   0.141  -0.198
    1UNL     C5    6  -0.131   0.249  -0.261
    1UNL     O2    7  -0.061   0.322  -0.187
    1UNL     O3    8  -0.133   0.263  -0.388
    1UNL     C6    9  -0.196   0.124  -0.048
    1UNL     C7   10  -0.055   0.133  -0.001
    1UNL     C8   11   0.018   0.001  -0.004
    1UNL     C9   12   0.154   0.012   0.031
    1UNL     N1   13   0.244   0.122   0.042
    1UNL    C10   14   0.361   0.087   0.105
    1UNL    C11   15   0.481   0.148   0.134
    1UNL    C12   16   0.576   0.070   0.196
    1UNL    C13   17   0.565  -0.067   0.221
    1UNL    C14   18   0.450  -0.132   0.183
    1UNL    C15   19   0.351  -0.050   0.135
    1UNL    C16   20   0.225  -0.105   0.071
    1UNL    C17   21   0.164  -0.226   0.071
    1UNL    C18   22   0.032  -0.232   0.027
    1UNL     N2   23  -0.039  -0.121  -0.014
    1UNL    C19   24  -0.177  -0.134  -0.065
    1UNL    C20   25  -0.260  -0.015  -0.016
    1UNL     H1   26  -0.579  -0.139  -0.100
    1UNL     H2   27  -0.513  -0.141   0.076
    1UNL     H3   28  -0.440  -0.233  -0.059
    1UNL     H4   29  -0.470   0.064  -0.040
    1UNL     H5   30  -0.282   0.072  -0.377
    1UNL     H6   31  -0.259   0.202  -0.001
    1UNL     H7   32  -0.055   0.174   0.093
    1UNL     H8   33  -0.008   0.198  -0.065
    1UNL     H9   34   0.222   0.221   0.042
    1UNL    H10   35   0.496   0.256   0.124
    1UNL    H11   36   0.662   0.121   0.234
    1UNL    H12   37   0.638  -0.122   0.281
    1UNL    H13   38   0.432  -0.234   0.188
    1UNL    H14   39   0.215  -0.309   0.123
    1UNL    H15   40  -0.016  -0.328   0.003
    1UNL    H16   41  -0.188  -0.144  -0.175
    1UNL    H17   42  -0.223  -0.232  -0.044
    1UNL    H18   43  -0.257  -0.021   0.095
   0.00000   0.00000   0.00000   0.00000   0.00000   0.00000   0.00000   0.00000   0.00000
Generated with MDTraj, t= 99.0
 43
    1UNL     C1    1  -0.495  -0.143  -0.050
    1UNL     C2    2  -0.411  -0.019  -0.086
    1UNL     O1    3  -0.385  -0.026  -0.228
    1UNL     C3    4  -0.287   0.062  -0.275
    1UNL     C4    5  -0.214   0.149  -0.196
    1UNL     C5    6  -0.133   0.242  -0.272
    1UNL     O2    7  -0.066   0.328  -0.212
    1UNL     O3    8  -0.136   0.233  -0.399
    1UNL     C6    9  -0.209   0.132  -0.040
    1UNL     C7   10  -0.061   0.138   0.003
    1UNL     C8   11   0.015   0.014   0.036
    1UNL     C9   12   0.149   0.020   0.075
    1UNL     N1   13   0.232   0.129   0.085
    1UNL    C10   14   0.359   0.081   0.117
    1UNL    C11   15   0.479   0.143   0.156
    1UNL    C12   16   0.591   0.068   0.184
    1UNL    C13   17   0.582  -0.071   0.198
    1UNL    C14   18   0.469  -0.139   0.161
    1UNL    C15   19   0.359  -0.063   0.121
    1UNL    C16   20   0.227  -0.102   0.074
    1UNL    C17   21   0.164  -0.226   0.043
    1UNL    C18   22   0.034  -0.230   0.007
    1UNL     N2   23  -0.039  -0.114   0.008
    1UNL    C19   24  -0.179  -0.120  -0.044
    1UNL    C20   25  -0.280  -0.006  -0.009
    1UNL     H1   26  -0.597  -0.125  -0.095
    1UNL     H2   27  -0.499  -0.138   0.059
    1UNL     H3   28  -0.459  -0.236  -0.089
    1UNL     H4   29  -0.480   0.069  -0.078
    1UNL     H5   30  -0.286   0.070  -0.386
    1UNL     H6   31  -0.270   0.214   0.001
    1UNL     H7   32  -0.051   0.197   0.088
    1UNL     H8   33  -0.010   0.186  -0.076
    1UNL     H9   34   0.202   0.224   0.073
    1UNL    H10   35   0.479   0.249   0.144
    1UNL    H11   36   0.678   0.117   0.230
    1UNL    H12   37   0.666  -0.134   0.231
    1UNL    H13   38   0.454  -0.249   0.161
    1UNL    H14   39   0.228  -0.308   0.032
    1UNL    H15   40   0.005  -0.321  -0.040
    1UNL    H16   41  -0.175  -0.146  -0.149
    1UNL    H17   42  -0.226  -0.212  -0.010
    1UNL    H18   43  -0.304  -0.002   0.098
   0.00000   0.00000   0.00000   0.00000   0.00000   0.00000   0.00000   0.00000   0.00000
