[ moleculetype ]
; name        nrexcl
res           1

[ atoms ]
;    nr  type resnr resid  atom  cgnr     charge       mass
      1 SC4       1 res   C1        1      0.000     54.000
      2 TP1       1 res   C2        2      0.000     36.000
      3 SN6       1 res   C3        3      0.000     54.000
      4 SC4       1 res   C4        4      0.000     54.000
      5 SC5       1 res   C5        5      0.000     54.000
      6 TC3       1 res   C6        6      0.000     36.000
      7 SC4       1 res   C7        7      0.000     54.000
      8 SN6       1 res   C8        8      0.000     54.000
      9 TN2a      1 res   C9        9      0.000     36.000

[ bonds ]
;  ai    aj   funct      b0(nm)        k
    1     2     1      0.26761    20000
    1     3     1      0.28248    20000
    1     4     1      0.35520    20000
    3     4     1      0.30236    20000
    4     5     1      0.34297    20000
    4     6     1      0.34578    20000
    5     6     1      0.33817    20000
    5     7     1      0.26172    20000
    7     8     1      0.29099    20000
    7     9     1      0.28685    20000
    8     9     1      0.23727    20000
