1TPCN06280
14
    1res  C1    1   -0.281   0.082   0.441
    1res  C2    2   -0.350   0.060   0.110
    1res  C3    3   -0.368  -0.108  -0.118
    1res  C4    4   -0.420   0.008  -0.358
    1res  C5    5   -0.689  -0.041  -0.249
    1res  C6    6   -0.647   0.051  -0.027
    1res  C7    7   -0.146  -0.051  -0.010
    1res  C8    8    0.001   0.022  -0.236
    1res  C9    9    0.209   0.147  -0.042
    1res  C10   10    0.108  -0.074   0.150
    1res  C11   11    0.352  -0.133  -0.093
    1res  C12   12    0.647  -0.201   0.046
    1res  C13   13    0.709   0.106   0.070
    1res  C14   14   -0.044   0.214   0.077
  10.00000  10.00000  10.00000
