1TPCN04819
28
    1res  C1    1    1.096   0.002  -0.200
    1res  C2    2    1.026   0.111   0.078
    1res  C3    3    0.830   0.174   0.023
    1res  C4    4    0.673   0.153   0.166
    1res  C5    5    0.490   0.198   0.050
    1res  C6    6    0.313  -0.083   0.016
    1res  C7    7    0.106  -0.065  -0.180
    1res  C8    8    0.010   0.056   0.172
    1res  C9    9   -0.072  -0.245   0.123
    1res  C10   10   -0.200  -0.192  -0.177
    1res  C11   11   -0.288   0.009   0.034
    1res  C12   12   -0.496  -0.308   0.004
    1res  C13   13   -0.725  -0.471  -0.055
    1res  C14   14   -0.702  -0.321   0.197
    1res  C15   15   -0.640  -0.037  -0.019
    1res  C16   16   -0.812   0.213  -0.008
    1res  C17   17   -0.829   0.494   0.118
    1res  C18   18   -1.011   0.384  -0.072
    1res  C19   19   -1.074   0.188  -0.142
    1res  C20   20   -0.979   0.012  -0.067
    1res  C21   21   -0.413  -0.068   0.260
    1res  C22   22    0.231   0.230  -0.131
    1res  C23   23    0.586   0.330  -0.112
    1res  C24   24    0.722   0.529  -0.206
    1res  C25   25    0.740   0.178  -0.202
    1res  C26   26    1.028  -0.025   0.239
    1res  C27   27    1.055  -0.233   0.165
    1res  C28   28    1.044  -0.218  -0.098
  10.00000  10.00000  10.00000
