Generated with MDTraj, t= 0.0
 72
    1UNL     C1    1   0.188  -0.195  -0.050
    1UNL     C2    2   0.331  -0.226  -0.018
    1UNL     C3    3   0.360  -0.337   0.077
    1UNL     C4    4   0.432  -0.158  -0.070
    1UNL     C5    5   0.421  -0.042  -0.162
    1UNL     C6    6   0.386   0.089  -0.089
    1UNL     O1    7   0.484   0.120   0.009
    1UNL     C7    8   0.364   0.205  -0.184
    1UNL     C8    9   0.466   0.312  -0.187
    1UNL     C9   10   0.257   0.214  -0.263
    1UNL    C10   11   0.146   0.115  -0.270
    1UNL     O2   12   0.018   0.170  -0.244
    1UNL    C11   13   0.002   0.205  -0.107
    1UNL     O3   14   0.097   0.144  -0.017
    1UNL    C12   15   0.079   0.185   0.120
    1UNL    C13   16   0.191   0.127   0.206
    1UNL     O4   17   0.195  -0.013   0.198
    1UNL    C14   18  -0.061   0.143   0.175
    1UNL     O5   19  -0.050   0.045   0.276
    1UNL    C15   20  -0.152   0.087   0.062
    1UNL     O6   21  -0.113  -0.046   0.031
    1UNL    C16   22  -0.227  -0.124   0.000
    1UNL     O7   23  -0.331  -0.047  -0.060
    1UNL    C17   24  -0.449  -0.120  -0.098
    1UNL    C18   25  -0.554  -0.020  -0.145
    1UNL     O8   26  -0.590   0.067  -0.041
    1UNL    C19   27  -0.503  -0.210   0.018
    1UNL     O9   28  -0.489  -0.348  -0.017
    1UNL    C20   29  -0.429  -0.177   0.150
    1UNL    O10   30  -0.451  -0.043   0.191
    1UNL    C21   31  -0.277  -0.199   0.130
    1UNL    O11   32  -0.209  -0.155   0.245
    1UNL    C22   33  -0.146   0.178  -0.063
    1UNL    O12   34  -0.217   0.299  -0.045
    1UNL     H1   35   0.173  -0.184  -0.157
    1UNL     H2   36   0.155  -0.104   0.000
    1UNL     H3   37   0.122  -0.275  -0.017
    1UNL     H4   38   0.404  -0.422   0.025
    1UNL     H5   39   0.269  -0.372   0.127
    1UNL     H6   40   0.429  -0.305   0.155
    1UNL     H7   41   0.532  -0.186  -0.039
    1UNL     H8   42   0.516  -0.026  -0.215
    1UNL     H9   43   0.348  -0.063  -0.241
    1UNL    H10   44   0.292   0.074  -0.033
    1UNL    H11   45   0.497   0.044   0.070
    1UNL    H12   46   0.546   0.291  -0.116
    1UNL    H13   47   0.510   0.322  -0.286
    1UNL    H14   48   0.422   0.408  -0.159
    1UNL    H15   49   0.247   0.301  -0.325
    1UNL    H16   50   0.142   0.068  -0.369
    1UNL    H17   51   0.159   0.034  -0.197
    1UNL    H18   52   0.021   0.313  -0.101
    1UNL    H19   53   0.087   0.295   0.119
    1UNL    H20   54   0.288   0.167   0.175
    1UNL    H21   55   0.175   0.157   0.311
    1UNL    H22   56   0.254  -0.050   0.268
    1UNL    H23   57  -0.110   0.229   0.223
    1UNL    H24   58  -0.020  -0.039   0.232
    1UNL    H25   59  -0.256   0.083   0.098
    1UNL    H26   60  -0.194  -0.197  -0.075
    1UNL    H27   61  -0.418  -0.186  -0.181
    1UNL    H28   62  -0.513   0.039  -0.228
    1UNL    H29   63  -0.644  -0.072  -0.181
    1UNL    H30   64  -0.647   0.140  -0.073
    1UNL    H31   65  -0.610  -0.190   0.030
    1UNL    H32   66  -0.520  -0.405   0.057
    1UNL    H33   67  -0.465  -0.241   0.232
    1UNL    H34   68  -0.490   0.006   0.115
    1UNL    H35   69  -0.256  -0.307   0.121
    1UNL    H36   70  -0.240  -0.064   0.264
    1UNL    H37   71  -0.195   0.125  -0.146
    1UNL    H38   72  -0.178   0.351   0.028
   0.00000   0.00000   0.00000   0.00000   0.00000   0.00000   0.00000   0.00000   0.00000
Generated with MDTraj, t= 1.0
 72
    1UNL     C1    1   0.176  -0.230  -0.085
    1UNL     C2    2   0.314  -0.231  -0.019
    1UNL     C3    3   0.323  -0.318   0.102
    1UNL     C4    4   0.417  -0.148  -0.053
    1UNL     C5    5   0.417  -0.038  -0.157
    1UNL     C6    6   0.382   0.099  -0.097
    1UNL     O1    7   0.488   0.142  -0.011
    1UNL     C7    8   0.355   0.216  -0.189
    1UNL     C8    9   0.454   0.327  -0.192
    1UNL     C9   10   0.253   0.222  -0.274
    1UNL    C10   11   0.148   0.113  -0.273
    1UNL     O2   12   0.024   0.161  -0.238
    1UNL    C11   13   0.018   0.197  -0.099
    1UNL     O3   14   0.100   0.120  -0.013
    1UNL    C12   15   0.092   0.168   0.122
    1UNL    C13   16   0.202   0.100   0.205
    1UNL     O4   17   0.187  -0.042   0.191
    1UNL    C14   18  -0.058   0.156   0.180
    1UNL     O5   19  -0.051   0.067   0.289
    1UNL    C15   20  -0.153   0.098   0.073
    1UNL     O6   21  -0.122  -0.035   0.047
    1UNL    C16   22  -0.227  -0.112   0.008
    1UNL     O7   23  -0.340  -0.036  -0.042
    1UNL    C17   24  -0.444  -0.126  -0.087
    1UNL    C18   25  -0.539  -0.036  -0.161
    1UNL     O8   26  -0.592   0.060  -0.073
    1UNL    C19   27  -0.507  -0.221   0.023
    1UNL     O9   28  -0.489  -0.361  -0.013
    1UNL    C20   29  -0.430  -0.180   0.158
    1UNL    O10   30  -0.450  -0.044   0.196
    1UNL    C21   31  -0.278  -0.196   0.126
    1UNL    O11   32  -0.210  -0.170   0.247
    1UNL    C22   33  -0.131   0.189  -0.053
    1UNL    O12   34  -0.175   0.323  -0.049
    1UNL     H1   35   0.184  -0.235  -0.191
    1UNL     H2   36   0.109  -0.142  -0.070
    1UNL     H3   37   0.120  -0.314  -0.066
    1UNL     H4   38   0.300  -0.251   0.184
    1UNL     H5   39   0.427  -0.347   0.102
    1UNL     H6   40   0.237  -0.386   0.093
    1UNL     H7   41   0.497  -0.143   0.018
    1UNL     H8   42   0.513  -0.029  -0.207
    1UNL     H9   43   0.353  -0.056  -0.237
    1UNL    H10   44   0.295   0.095  -0.032
    1UNL    H11   45   0.536   0.062   0.035
    1UNL    H12   46   0.528   0.340  -0.272
    1UNL    H13   47   0.396   0.414  -0.225
    1UNL    H14   48   0.473   0.354  -0.088
    1UNL    H15   49   0.239   0.302  -0.338
    1UNL    H16   50   0.148   0.073  -0.375
    1UNL    H17   51   0.177   0.035  -0.206
    1UNL    H18   52   0.059   0.301  -0.096
    1UNL    H19   53   0.125   0.270   0.125
    1UNL    H20   54   0.301   0.123   0.172
    1UNL    H21   55   0.205   0.126   0.309
    1UNL    H22   56   0.130  -0.048   0.111
    1UNL    H23   57  -0.080   0.252   0.236
    1UNL    H24   58   0.017  -0.013   0.264
    1UNL    H25   59  -0.261   0.108   0.103
    1UNL    H26   60  -0.200  -0.177  -0.080
    1UNL    H27   61  -0.389  -0.182  -0.167
    1UNL    H28   62  -0.488   0.013  -0.239
    1UNL    H29   63  -0.627  -0.100  -0.193
    1UNL    H30   64  -0.674   0.119  -0.101
    1UNL    H31   65  -0.609  -0.189   0.032
    1UNL    H32   66  -0.436  -0.386  -0.097
    1UNL    H33   67  -0.462  -0.240   0.241
    1UNL    H34   68  -0.461   0.019   0.120
    1UNL    H35   69  -0.270  -0.301   0.113
    1UNL    H36   70  -0.166  -0.080   0.252
    1UNL    H37   71  -0.190   0.147  -0.135
    1UNL    H38   72  -0.185   0.351   0.042
   0.00000   0.00000   0.00000   0.00000   0.00000   0.00000   0.00000   0.00000   0.00000
Generated with MDTraj, t= 2.0
 72
    1UNL     C1    1   0.203  -0.243  -0.148
    1UNL     C2    2   0.308  -0.232  -0.038
    1UNL     C3    3   0.284  -0.310   0.099
    1UNL     C4    4   0.399  -0.136  -0.039
    1UNL     C5    5   0.422  -0.038  -0.143
    1UNL     C6    6   0.391   0.106  -0.098
    1UNL     O1    7   0.489   0.163  -0.014
    1UNL     C7    8   0.356   0.220  -0.205
    1UNL     C8    9   0.465   0.314  -0.225
    1UNL     C9   10   0.245   0.207  -0.279
    1UNL    C10   11   0.145   0.096  -0.260
    1UNL     O2   12   0.020   0.146  -0.232
    1UNL    C11   13   0.010   0.197  -0.098
    1UNL     O3   14   0.102   0.134  -0.010
    1UNL    C12   15   0.106   0.179   0.130
    1UNL    C13   16   0.204   0.089   0.208
    1UNL     O4   17   0.159  -0.047   0.196
    1UNL    C14   18  -0.045   0.172   0.188
    1UNL     O5   19  -0.041   0.114   0.315
    1UNL    C15   20  -0.141   0.095   0.087
    1UNL     O6   21  -0.107  -0.037   0.064
    1UNL    C16   22  -0.210  -0.121   0.019
    1UNL     O7   23  -0.314  -0.046  -0.058
    1UNL    C17   24  -0.428  -0.124  -0.103
    1UNL    C18   25  -0.526  -0.027  -0.162
    1UNL     O8   26  -0.599   0.035  -0.059
    1UNL    C19   27  -0.499  -0.206   0.006
    1UNL     O9   28  -0.500  -0.345  -0.026
    1UNL    C20   29  -0.436  -0.176   0.149
    1UNL    O10   30  -0.454  -0.040   0.188
    1UNL    C21   31  -0.287  -0.204   0.129
    1UNL    O11   32  -0.217  -0.176   0.249
    1UNL    C22   33  -0.141   0.180  -0.045
    1UNL    O12   34  -0.197   0.304  -0.011
    1UNL     H1   35   0.253  -0.226  -0.239
    1UNL     H2   36   0.129  -0.164  -0.149
    1UNL     H3   37   0.162  -0.339  -0.145
    1UNL     H4   38   0.280  -0.413   0.063
    1UNL     H5   39   0.192  -0.266   0.136
    1UNL     H6   40   0.368  -0.318   0.166
    1UNL     H7   41   0.450  -0.127   0.060
    1UNL     H8   42   0.526  -0.043  -0.173
    1UNL     H9   43   0.384  -0.063  -0.236
    1UNL    H10   44   0.302   0.097  -0.034
    1UNL    H11   45   0.537   0.076   0.023
    1UNL    H12   46   0.442   0.403  -0.281
    1UNL    H13   47   0.470   0.354  -0.124
    1UNL    H14   48   0.564   0.268  -0.223
    1UNL    H15   49   0.222   0.284  -0.361
    1UNL    H16   50   0.142   0.049  -0.358
    1UNL    H17   51   0.190   0.034  -0.185
    1UNL    H18   52   0.047   0.304  -0.107
    1UNL    H19   53   0.137   0.278   0.127
    1UNL    H20   54   0.304   0.099   0.175
    1UNL    H21   55   0.207   0.112   0.312
    1UNL    H22   56   0.067  -0.038   0.162
    1UNL    H23   57  -0.083   0.280   0.200
    1UNL    H24   58   0.004   0.028   0.314
    1UNL    H25   59  -0.253   0.088   0.121
    1UNL    H26   60  -0.167  -0.182  -0.069
    1UNL    H27   61  -0.380  -0.202  -0.168
    1UNL    H28   62  -0.476   0.045  -0.210
    1UNL    H29   63  -0.596  -0.086  -0.230
    1UNL    H30   64  -0.669   0.091  -0.102
    1UNL    H31   65  -0.599  -0.173   0.006
    1UNL    H32   66  -0.527  -0.404   0.053
    1UNL    H33   67  -0.474  -0.240   0.226
    1UNL    H34   68  -0.458   0.015   0.105
    1UNL    H35   69  -0.274  -0.307   0.117
    1UNL    H36   70  -0.208  -0.081   0.268
    1UNL    H37   71  -0.205   0.135  -0.120
    1UNL    H38   72  -0.142   0.376  -0.044
   0.00000   0.00000   0.00000   0.00000   0.00000   0.00000   0.00000   0.00000   0.00000
Generated with MDTraj, t= 3.0
 72
    1UNL     C1    1   0.230  -0.256  -0.179
    1UNL     C2    2   0.307  -0.233  -0.049
    1UNL     C3    3   0.267  -0.312   0.067
    1UNL     C4    4   0.383  -0.124  -0.034
    1UNL     C5    5   0.423  -0.026  -0.132
    1UNL     C6    6   0.385   0.111  -0.097
    1UNL     O1    7   0.488   0.169  -0.026
    1UNL     C7    8   0.359   0.194  -0.226
    1UNL     C8    9   0.467   0.289  -0.266
    1UNL     C9   10   0.245   0.190  -0.292
    1UNL    C10   11   0.133   0.095  -0.257
    1UNL     O2   12   0.019   0.171  -0.226
    1UNL    C11   13   0.008   0.202  -0.085
    1UNL     O3   14   0.098   0.130  -0.002
    1UNL    C12   15   0.096   0.168   0.144
    1UNL    C13   16   0.175   0.073   0.232
    1UNL     O4   17   0.151  -0.060   0.202
    1UNL    C14   18  -0.052   0.170   0.205
    1UNL     O5   19  -0.072   0.090   0.320
    1UNL    C15   20  -0.143   0.103   0.096
    1UNL     O6   21  -0.106  -0.035   0.089
    1UNL    C16   22  -0.201  -0.117   0.033
    1UNL     O7   23  -0.303  -0.043  -0.043
    1UNL    C17   24  -0.413  -0.114  -0.102
    1UNL    C18   25  -0.512  -0.017  -0.173
    1UNL     O8   26  -0.559   0.076  -0.079
    1UNL    C19   27  -0.482  -0.201   0.008
    1UNL     O9   28  -0.464  -0.334  -0.040
    1UNL    C20   29  -0.418  -0.185   0.153
    1UNL    O10   30  -0.458  -0.050   0.193
    1UNL    C21   31  -0.269  -0.203   0.149
    1UNL    O11   32  -0.219  -0.145   0.271
    1UNL    C22   33  -0.145   0.176  -0.040
    1UNL    O12   34  -0.234   0.291  -0.041
    1UNL     H1   35   0.207  -0.166  -0.227
    1UNL     H2   36   0.136  -0.298  -0.164
    1UNL     H3   37   0.293  -0.324  -0.233
    1UNL     H4   38   0.340  -0.291   0.145
    1UNL     H5   39   0.283  -0.416   0.047
    1UNL     H6   40   0.168  -0.301   0.112
    1UNL     H7   41   0.423  -0.110   0.060
    1UNL     H8   42   0.525  -0.044  -0.159
    1UNL     H9   43   0.384  -0.050  -0.229
    1UNL    H10   44   0.296   0.131  -0.036
    1UNL    H11   45   0.497   0.134   0.068
    1UNL    H12   46   0.461   0.376  -0.203
    1UNL    H13   47   0.562   0.241  -0.251
    1UNL    H14   48   0.458   0.329  -0.365
    1UNL    H15   49   0.251   0.258  -0.368
    1UNL    H16   50   0.123   0.023  -0.339
    1UNL    H17   51   0.159   0.046  -0.164
    1UNL    H18   52   0.029   0.314  -0.075
    1UNL    H19   53   0.126   0.268   0.148
    1UNL    H20   54   0.280   0.094   0.230
    1UNL    H21   55   0.140   0.098   0.330
    1UNL    H22   56   0.060  -0.081   0.168
    1UNL    H23   57  -0.081   0.280   0.225
    1UNL    H24   58  -0.088  -0.003   0.293
    1UNL    H25   59  -0.251   0.086   0.138
    1UNL    H26   60  -0.148  -0.195  -0.035
    1UNL    H27   61  -0.363  -0.183  -0.177
    1UNL    H28   62  -0.463   0.025  -0.248
    1UNL    H29   63  -0.601  -0.070  -0.218
    1UNL    H30   64  -0.615   0.133  -0.127
    1UNL    H31   65  -0.583  -0.175   0.006
    1UNL    H32   66  -0.444  -0.389   0.035
    1UNL    H33   67  -0.465  -0.256   0.215
    1UNL    H34   68  -0.476  -0.011   0.106
    1UNL    H35   69  -0.245  -0.305   0.146
    1UNL    H36   70  -0.283  -0.089   0.324
    1UNL    H37   71  -0.186   0.101  -0.104
    1UNL    H38   72  -0.312   0.287  -0.104
   0.00000   0.00000   0.00000   0.00000   0.00000   0.00000   0.00000   0.00000   0.00000
Generated with MDTraj, t= 4.0
 72
    1UNL     C1    1   0.256  -0.287  -0.195
    1UNL     C2    2   0.301  -0.238  -0.058
    1UNL     C3    3   0.253  -0.317   0.053
    1UNL     C4    4   0.365  -0.122  -0.034
    1UNL     C5    5   0.415  -0.030  -0.137
    1UNL     C6    6   0.392   0.120  -0.102
    1UNL     O1    7   0.497   0.180  -0.016
    1UNL     C7    8   0.368   0.197  -0.238
    1UNL     C8    9   0.476   0.264  -0.307
    1UNL     C9   10   0.252   0.180  -0.300
    1UNL    C10   11   0.120   0.129  -0.248
    1UNL     O2   12   0.022   0.226  -0.208
    1UNL    C11   13   0.009   0.221  -0.064
    1UNL     O3   14   0.119   0.158   0.004
    1UNL    C12   15   0.099   0.174   0.147
    1UNL    C13   16   0.182   0.081   0.224
    1UNL     O4   17   0.160  -0.053   0.189
    1UNL    C14   18  -0.050   0.162   0.197
    1UNL     O5   19  -0.061   0.105   0.328
    1UNL    C15   20  -0.137   0.082   0.097
    1UNL     O6   21  -0.108  -0.054   0.099
    1UNL    C16   22  -0.211  -0.138   0.050
    1UNL     O7   23  -0.293  -0.067  -0.044
    1UNL    C17   24  -0.407  -0.127  -0.102
    1UNL    C18   25  -0.506  -0.012  -0.149
    1UNL     O8   26  -0.513   0.104  -0.068
    1UNL    C19   27  -0.478  -0.229  -0.008
    1UNL     O9   28  -0.439  -0.361  -0.042
    1UNL    C20   29  -0.449  -0.191   0.143
    1UNL    O10   30  -0.506  -0.061   0.167
    1UNL    C21   31  -0.299  -0.189   0.172
    1UNL    O11   32  -0.275  -0.100   0.285
    1UNL    C22   33  -0.131   0.162  -0.034
    1UNL    O12   34  -0.239   0.258  -0.032
    1UNL     H1   35   0.153  -0.287  -0.214
    1UNL     H2   36   0.282  -0.381  -0.226
    1UNL     H3   37   0.316  -0.235  -0.269
    1UNL     H4   38   0.165  -0.282   0.106
    1UNL     H5   39   0.319  -0.310   0.138
    1UNL     H6   40   0.227  -0.421   0.037
    1UNL     H7   41   0.388  -0.099   0.075
    1UNL     H8   42   0.520  -0.047  -0.142
    1UNL     H9   43   0.404  -0.067  -0.242
    1UNL    H10   44   0.298   0.127  -0.048
    1UNL    H11   45   0.482   0.143   0.069
    1UNL    H12   46   0.563   0.270  -0.245
    1UNL    H13   47   0.496   0.206  -0.397
    1UNL    H14   48   0.441   0.366  -0.310
    1UNL    H15   49   0.259   0.237  -0.398
    1UNL    H16   50   0.060   0.084  -0.329
    1UNL    H17   51   0.129   0.050  -0.174
    1UNL    H18   52   0.010   0.332  -0.034
    1UNL    H19   53   0.127   0.272   0.174
    1UNL    H20   54   0.286   0.108   0.198
    1UNL    H21   55   0.176   0.089   0.335
    1UNL    H22   56   0.062  -0.057   0.183
    1UNL    H23   57  -0.089   0.268   0.206
    1UNL    H24   58  -0.112   0.018   0.321
    1UNL    H25   59  -0.247   0.094   0.133
    1UNL    H26   60  -0.157  -0.230   0.011
    1UNL    H27   61  -0.386  -0.185  -0.196
    1UNL    H28   62  -0.480   0.018  -0.247
    1UNL    H29   63  -0.607  -0.054  -0.150
    1UNL    H30   64  -0.572   0.175  -0.108
    1UNL    H31   65  -0.582  -0.223  -0.024
    1UNL    H32   66  -0.351  -0.354  -0.079
    1UNL    H33   67  -0.488  -0.266   0.206
    1UNL    H34   68  -0.499  -0.003   0.087
    1UNL    H35   69  -0.265  -0.283   0.201
    1UNL    H36   70  -0.346  -0.034   0.301
    1UNL    H37   71  -0.150   0.097  -0.115
    1UNL    H38   72  -0.324   0.210  -0.009
   0.00000   0.00000   0.00000   0.00000   0.00000   0.00000   0.00000   0.00000   0.00000
Generated with MDTraj, t= 5.0
 72
    1UNL     C1    1   0.293  -0.316  -0.188
    1UNL     C2    2   0.289  -0.246  -0.058
    1UNL     C3    3   0.230  -0.326   0.056
    1UNL     C4    4   0.341  -0.123  -0.044
    1UNL     C5    5   0.402  -0.042  -0.152
    1UNL     C6    6   0.393   0.113  -0.125
    1UNL     O1    7   0.493   0.165  -0.039
    1UNL     C7    8   0.371   0.202  -0.252
    1UNL     C8    9   0.488   0.250  -0.328
    1UNL     C9   10   0.243   0.219  -0.299
    1UNL    C10   11   0.109   0.165  -0.249
    1UNL     O2   12   0.034   0.266  -0.179
    1UNL    C11   13  -0.000   0.238  -0.036
    1UNL     O3   14   0.109   0.181   0.034
    1UNL    C12   15   0.099   0.184   0.173
    1UNL    C13   16   0.203   0.094   0.233
    1UNL     O4   17   0.186  -0.035   0.182
    1UNL    C14   18  -0.045   0.150   0.222
    1UNL     O5   19  -0.043   0.048   0.324
    1UNL    C15   20  -0.131   0.077   0.112
    1UNL     O6   21  -0.104  -0.060   0.103
    1UNL    C16   22  -0.221  -0.129   0.059
    1UNL     O7   23  -0.284  -0.055  -0.045
    1UNL    C17   24  -0.393  -0.123  -0.104
    1UNL    C18   25  -0.484  -0.011  -0.158
    1UNL     O8   26  -0.523   0.085  -0.061
    1UNL    C19   27  -0.463  -0.232  -0.014
    1UNL     O9   28  -0.413  -0.367  -0.021
    1UNL    C20   29  -0.469  -0.192   0.139
    1UNL    O10   30  -0.555  -0.076   0.168
    1UNL    C21   31  -0.322  -0.151   0.179
    1UNL    O11   32  -0.314  -0.040   0.264
    1UNL    C22   33  -0.114   0.136  -0.031
    1UNL    O12   34  -0.230   0.202  -0.088
    1UNL     H1   35   0.207  -0.368  -0.215
    1UNL     H2   36   0.372  -0.381  -0.206
    1UNL     H3   37   0.322  -0.252  -0.272
    1UNL     H4   38   0.195  -0.426   0.034
    1UNL     H5   39   0.142  -0.270   0.090
    1UNL     H6   40   0.305  -0.346   0.134
    1UNL     H7   41   0.354  -0.091   0.055
    1UNL     H8   42   0.499  -0.072  -0.188
    1UNL     H9   43   0.354  -0.059  -0.254
    1UNL    H10   44   0.301   0.129  -0.068
    1UNL    H11   45   0.493   0.126   0.045
    1UNL    H12   46   0.560   0.175  -0.351
    1UNL    H13   47   0.453   0.286  -0.424
    1UNL    H14   48   0.533   0.315  -0.254
    1UNL    H15   49   0.242   0.292  -0.378
    1UNL    H16   50   0.051   0.136  -0.338
    1UNL    H17   51   0.112   0.077  -0.183
    1UNL    H18   52  -0.033   0.341   0.004
    1UNL    H19   53   0.121   0.282   0.211
    1UNL    H20   54   0.307   0.128   0.208
    1UNL    H21   55   0.200   0.096   0.346
    1UNL    H22   56   0.094  -0.065   0.195
    1UNL    H23   57  -0.092   0.242   0.260
    1UNL    H24   58  -0.130  -0.002   0.317
    1UNL    H25   59  -0.243   0.095   0.134
    1UNL    H26   60  -0.177  -0.224   0.019
    1UNL    H27   61  -0.346  -0.184  -0.183
    1UNL    H28   62  -0.415   0.037  -0.237
    1UNL    H29   63  -0.570  -0.055  -0.200
    1UNL    H30   64  -0.542   0.179  -0.100
    1UNL    H31   65  -0.569  -0.243  -0.031
    1UNL    H32   66  -0.325  -0.377   0.021
    1UNL    H33   67  -0.492  -0.273   0.203
    1UNL    H34   68  -0.560  -0.016   0.090
    1UNL    H35   69  -0.281  -0.235   0.226
    1UNL    H36   70  -0.398  -0.044   0.316
    1UNL    H37   71  -0.089   0.057  -0.096
    1UNL    H38   72  -0.310   0.153  -0.051
   0.00000   0.00000   0.00000   0.00000   0.00000   0.00000   0.00000   0.00000   0.00000
Generated with MDTraj, t= 6.0
 72
    1UNL     C1    1   0.330  -0.334  -0.181
    1UNL     C2    2   0.280  -0.251  -0.070
    1UNL     C3    3   0.233  -0.331   0.052
    1UNL     C4    4   0.304  -0.119  -0.070
    1UNL     C5    5   0.343  -0.041  -0.181
    1UNL     C6    6   0.373   0.107  -0.142
    1UNL     O1    7   0.502   0.120  -0.080
    1UNL     C7    8   0.360   0.193  -0.257
    1UNL     C8    9   0.482   0.248  -0.325
    1UNL     C9   10   0.240   0.237  -0.306
    1UNL    C10   11   0.107   0.211  -0.240
    1UNL     O2   12   0.067   0.307  -0.146
    1UNL    C11   13   0.036   0.247  -0.024
    1UNL     O3   14   0.142   0.216   0.063
    1UNL    C12   15   0.109   0.195   0.204
    1UNL    C13   16   0.217   0.090   0.258
    1UNL     O4   17   0.185  -0.038   0.206
    1UNL    C14   18  -0.046   0.146   0.229
    1UNL     O5   19  -0.060   0.069   0.351
    1UNL    C15   20  -0.117   0.084   0.104
    1UNL     O6   21  -0.099  -0.055   0.100
    1UNL    C16   22  -0.221  -0.119   0.059
    1UNL     O7   23  -0.301  -0.048  -0.038
    1UNL    C17   24  -0.394  -0.140  -0.105
    1UNL    C18   25  -0.497  -0.054  -0.182
    1UNL     O8   26  -0.553   0.042  -0.089
    1UNL    C19   27  -0.469  -0.243  -0.005
    1UNL     O9   28  -0.431  -0.381  -0.017
    1UNL    C20   29  -0.463  -0.190   0.138
    1UNL    O10   30  -0.564  -0.091   0.164
    1UNL    C21   31  -0.320  -0.136   0.182
    1UNL    O11   32  -0.327  -0.021   0.260
    1UNL    C22   33  -0.079   0.142  -0.036
    1UNL    O12   34  -0.193   0.197  -0.098
    1UNL     H1   35   0.285  -0.425  -0.161
    1UNL     H2   36   0.437  -0.346  -0.182
    1UNL     H3   37   0.297  -0.308  -0.277
    1UNL     H4   38   0.320  -0.355   0.112
    1UNL     H5   39   0.175  -0.415   0.010
    1UNL     H6   40   0.182  -0.257   0.114
    1UNL     H7   41   0.289  -0.069   0.025
    1UNL     H8   42   0.424  -0.080  -0.234
    1UNL     H9   43   0.273  -0.037  -0.272
    1UNL    H10   44   0.307   0.146  -0.065
    1UNL    H11   45   0.530   0.042  -0.027
    1UNL    H12   46   0.503   0.226  -0.430
    1UNL    H13   47   0.486   0.355  -0.314
    1UNL    H14   48   0.564   0.206  -0.272
    1UNL    H15   49   0.250   0.309  -0.383
    1UNL    H16   50   0.018   0.204  -0.305
    1UNL    H17   51   0.121   0.113  -0.194
    1UNL    H18   52  -0.015   0.331   0.036
    1UNL    H19   53   0.125   0.294   0.249
    1UNL    H20   54   0.322   0.119   0.231
    1UNL    H21   55   0.217   0.080   0.371
    1UNL    H22   56   0.087  -0.053   0.208
    1UNL    H23   57  -0.100   0.238   0.242
    1UNL    H24   58  -0.142   0.028   0.347
    1UNL    H25   59  -0.229   0.105   0.106
    1UNL    H26   60  -0.187  -0.213   0.013
    1UNL    H27   61  -0.338  -0.201  -0.175
    1UNL    H28   62  -0.442   0.010  -0.266
    1UNL    H29   63  -0.562  -0.120  -0.229
    1UNL    H30   64  -0.561   0.128  -0.130
    1UNL    H31   65  -0.577  -0.234  -0.024
    1UNL    H32   66  -0.332  -0.389  -0.002
    1UNL    H33   67  -0.480  -0.270   0.206
    1UNL    H34   68  -0.580  -0.043   0.079
    1UNL    H35   69  -0.278  -0.215   0.237
    1UNL    H36   70  -0.424  -0.012   0.270
    1UNL    H37   71  -0.040   0.058  -0.087
    1UNL    H38   72  -0.252   0.124  -0.120
   0.00000   0.00000   0.00000   0.00000   0.00000   0.00000   0.00000   0.00000   0.00000
Generated with MDTraj, t= 7.0
 72
    1UNL     C1    1   0.367  -0.323  -0.187
    1UNL     C2    2   0.286  -0.249  -0.082
    1UNL     C3    3   0.246  -0.313   0.048
    1UNL     C4    4   0.256  -0.120  -0.088
    1UNL     C5    5   0.289  -0.034  -0.199
    1UNL     C6    6   0.362   0.096  -0.159
    1UNL     O1    7   0.497   0.064  -0.124
    1UNL     C7    8   0.360   0.203  -0.273
    1UNL     C8    9   0.491   0.227  -0.326
    1UNL     C9   10   0.250   0.278  -0.299
    1UNL    C10   11   0.119   0.250  -0.230
    1UNL     O2   12   0.103   0.330  -0.112
    1UNL    C11   13   0.047   0.262  -0.005
    1UNL     O3   14   0.140   0.187   0.075
    1UNL    C12   15   0.108   0.181   0.214
    1UNL    C13   16   0.171   0.057   0.274
    1UNL     O4   17   0.137  -0.063   0.217
    1UNL    C14   18  -0.053   0.173   0.223
    1UNL     O5   19  -0.082   0.105   0.345
    1UNL    C15   20  -0.129   0.099   0.099
    1UNL     O6   21  -0.113  -0.042   0.107
    1UNL    C16   22  -0.228  -0.107   0.068
    1UNL     O7   23  -0.303  -0.047  -0.038
    1UNL    C17   24  -0.379  -0.148  -0.102
    1UNL    C18   25  -0.485  -0.092  -0.187
    1UNL     O8   26  -0.562  -0.000  -0.120
    1UNL    C19   27  -0.457  -0.238   0.010
    1UNL     O9   28  -0.406  -0.366   0.001
    1UNL    C20   29  -0.456  -0.187   0.152
    1UNL    O10   30  -0.540  -0.074   0.154
    1UNL    C21   31  -0.312  -0.147   0.197
    1UNL    O11   32  -0.318  -0.041   0.294
    1UNL    C22   33  -0.069   0.153  -0.040
    1UNL    O12   34  -0.169   0.210  -0.122
    1UNL     H1   35   0.395  -0.415  -0.147
    1UNL     H2   36   0.453  -0.265  -0.218
    1UNL     H3   37   0.299  -0.346  -0.259
    1UNL     H4   38   0.236  -0.237   0.127
    1UNL     H5   39   0.326  -0.385   0.069
    1UNL     H6   40   0.146  -0.358   0.049
    1UNL     H7   41   0.185  -0.088  -0.008
    1UNL     H8   42   0.356  -0.079  -0.270
    1UNL     H9   43   0.205  -0.032  -0.280
    1UNL    H10   44   0.309   0.122  -0.069
    1UNL    H11   45   0.501  -0.028  -0.077
    1UNL    H12   46   0.502   0.281  -0.420
    1UNL    H13   47   0.551   0.276  -0.253
    1UNL    H14   48   0.541   0.135  -0.353
    1UNL    H15   49   0.255   0.368  -0.371
    1UNL    H16   50   0.041   0.274  -0.304
    1UNL    H17   51   0.105   0.145  -0.198
    1UNL    H18   52  -0.002   0.337   0.062
    1UNL    H19   53   0.152   0.276   0.257
    1UNL    H20   54   0.281   0.057   0.266
    1UNL    H21   55   0.146   0.055   0.382
    1UNL    H22   56   0.041  -0.059   0.196
    1UNL    H23   57  -0.087   0.273   0.239
    1UNL    H24   58  -0.171   0.050   0.330
    1UNL    H25   59  -0.238   0.121   0.095
    1UNL    H26   60  -0.194  -0.203   0.032
    1UNL    H27   61  -0.312  -0.199  -0.169
    1UNL    H28   62  -0.432  -0.050  -0.288
    1UNL    H29   63  -0.548  -0.166  -0.218
    1UNL    H30   64  -0.548   0.085  -0.158
    1UNL    H31   65  -0.564  -0.247  -0.022
    1UNL    H32   66  -0.304  -0.378  -0.001
    1UNL    H33   67  -0.493  -0.268   0.215
    1UNL    H34   68  -0.544  -0.042   0.060
    1UNL    H35   69  -0.250  -0.217   0.254
    1UNL    H36   70  -0.408   0.000   0.291
    1UNL    H37   71  -0.018   0.066  -0.075
    1UNL    H38   72  -0.230   0.129  -0.129
   0.00000   0.00000   0.00000   0.00000   0.00000   0.00000   0.00000   0.00000   0.00000
Generated with MDTraj, t= 8.0
 72
    1UNL     C1    1   0.395  -0.294  -0.175
    1UNL     C2    2   0.284  -0.252  -0.083
    1UNL     C3    3   0.252  -0.306   0.045
    1UNL     C4    4   0.227  -0.133  -0.113
    1UNL     C5    5   0.266  -0.040  -0.230
    1UNL     C6    6   0.341   0.078  -0.182
    1UNL     O1    7   0.465   0.048  -0.136
    1UNL     C7    8   0.365   0.196  -0.272
    1UNL     C8    9   0.493   0.212  -0.338
    1UNL     C9   10   0.259   0.277  -0.297
    1UNL    C10   11   0.126   0.260  -0.228
    1UNL     O2   12   0.106   0.334  -0.103
    1UNL    C11   13   0.056   0.260   0.002
    1UNL     O3   14   0.154   0.198   0.082
    1UNL    C12   15   0.107   0.175   0.217
    1UNL    C13   16   0.161   0.048   0.285
    1UNL     O4   17   0.134  -0.072   0.214
    1UNL    C14   18  -0.048   0.176   0.230
    1UNL     O5   19  -0.080   0.119   0.353
    1UNL    C15   20  -0.121   0.105   0.121
    1UNL     O6   21  -0.117  -0.033   0.131
    1UNL    C16   22  -0.223  -0.109   0.079
    1UNL     O7   23  -0.297  -0.050  -0.026
    1UNL    C17   24  -0.375  -0.156  -0.102
    1UNL    C18   25  -0.479  -0.100  -0.208
    1UNL     O8   26  -0.566  -0.007  -0.143
    1UNL    C19   27  -0.449  -0.247   0.002
    1UNL     O9   28  -0.370  -0.366   0.013
    1UNL    C20   29  -0.462  -0.179   0.139
    1UNL    O10   30  -0.542  -0.060   0.138
    1UNL    C21   31  -0.319  -0.151   0.195
    1UNL    O11   32  -0.330  -0.036   0.293
    1UNL    C22   33  -0.066   0.161  -0.020
    1UNL    O12   34  -0.166   0.215  -0.107
    1UNL     H1   35   0.447  -0.385  -0.162
    1UNL     H2   36   0.474  -0.220  -0.176
    1UNL     H3   37   0.352  -0.302  -0.269
    1UNL     H4   38   0.154  -0.295   0.093
    1UNL     H5   39   0.326  -0.275   0.118
    1UNL     H6   40   0.257  -0.416   0.046
    1UNL     H7   41   0.153  -0.095  -0.052
    1UNL     H8   42   0.309  -0.086  -0.315
    1UNL     H9   43   0.167  -0.005  -0.281
    1UNL    H10   44   0.294   0.123  -0.093
    1UNL    H11   45   0.460  -0.029  -0.064
    1UNL    H12   46   0.503   0.310  -0.385
    1UNL    H13   47   0.569   0.200  -0.263
    1UNL    H14   48   0.512   0.149  -0.424
    1UNL    H15   49   0.273   0.352  -0.364
    1UNL    H16   50   0.039   0.289  -0.289
    1UNL    H17   51   0.110   0.153  -0.202
    1UNL    H18   52   0.011   0.336   0.068
    1UNL    H19   53   0.142   0.269   0.275
    1UNL    H20   54   0.268   0.057   0.295
    1UNL    H21   55   0.116   0.030   0.383
    1UNL    H22   56   0.040  -0.071   0.182
    1UNL    H23   57  -0.089   0.275   0.244
    1UNL    H24   58  -0.160   0.074   0.353
    1UNL    H25   59  -0.224   0.139   0.118
    1UNL    H26   60  -0.183  -0.200   0.045
    1UNL    H27   61  -0.303  -0.216  -0.155
    1UNL    H28   62  -0.427  -0.037  -0.295
    1UNL    H29   63  -0.524  -0.183  -0.247
    1UNL    H30   64  -0.635   0.032  -0.208
    1UNL    H31   65  -0.555  -0.271  -0.030
    1UNL    H32   66  -0.397  -0.420   0.093
    1UNL    H33   67  -0.536  -0.247   0.189
    1UNL    H34   68  -0.552  -0.029   0.045
    1UNL    H35   69  -0.274  -0.232   0.255
    1UNL    H36   70  -0.408   0.019   0.269
    1UNL    H37   71  -0.010   0.091  -0.072
    1UNL    H38   72  -0.237   0.152  -0.116
   0.00000   0.00000   0.00000   0.00000   0.00000   0.00000   0.00000   0.00000   0.00000
Generated with MDTraj, t= 9.0
 72
    1UNL     C1    1   0.418  -0.282  -0.148
    1UNL     C2    2   0.296  -0.250  -0.080
    1UNL     C3    3   0.249  -0.338   0.027
    1UNL     C4    4   0.215  -0.150  -0.118
    1UNL     C5    5   0.253  -0.047  -0.222
    1UNL     C6    6   0.324   0.076  -0.164
    1UNL     O1    7   0.460   0.045  -0.112
    1UNL     C7    8   0.323   0.178  -0.275
    1UNL     C8    9   0.452   0.203  -0.346
    1UNL     C9   10   0.216   0.259  -0.301
    1UNL    C10   11   0.093   0.243  -0.224
    1UNL     O2   12   0.094   0.336  -0.114
    1UNL    C11   13   0.047   0.271   0.005
    1UNL     O3   14   0.149   0.213   0.092
    1UNL    C12   15   0.111   0.172   0.224
    1UNL    C13   16   0.189   0.061   0.284
    1UNL     O4   17   0.198  -0.056   0.206
    1UNL    C14   18  -0.039   0.160   0.249
    1UNL     O5   19  -0.062   0.075   0.361
    1UNL    C15   20  -0.115   0.103   0.129
    1UNL     O6   21  -0.100  -0.038   0.127
    1UNL    C16   22  -0.221  -0.107   0.090
    1UNL     O7   23  -0.277  -0.047  -0.031
    1UNL    C17   24  -0.361  -0.138  -0.104
    1UNL    C18   25  -0.451  -0.072  -0.208
    1UNL     O8   26  -0.562   0.000  -0.160
    1UNL    C19   27  -0.438  -0.239  -0.007
    1UNL     O9   28  -0.369  -0.370   0.010
    1UNL    C20   29  -0.467  -0.171   0.129
    1UNL    O10   30  -0.555  -0.065   0.128
    1UNL    C21   31  -0.325  -0.121   0.195
    1UNL    O11   32  -0.345   0.005   0.250
    1UNL    C22   33  -0.064   0.156  -0.018
    1UNL    O12   34  -0.170   0.207  -0.092
    1UNL     H1   35   0.470  -0.358  -0.097
    1UNL     H2   36   0.485  -0.203  -0.140
    1UNL     H3   37   0.408  -0.318  -0.250
    1UNL     H4   38   0.208  -0.434  -0.008
    1UNL     H5   39   0.170  -0.297   0.091
    1UNL     H6   40   0.333  -0.376   0.089
    1UNL     H7   41   0.112  -0.137  -0.074
    1UNL     H8   42   0.314  -0.096  -0.294
    1UNL     H9   43   0.161  -0.023  -0.283
    1UNL    H10   44   0.276   0.134  -0.079
    1UNL    H11   45   0.438  -0.003  -0.025
    1UNL    H12   46   0.484   0.303  -0.316
    1UNL    H13   47   0.515   0.127  -0.301
    1UNL    H14   48   0.450   0.214  -0.455
    1UNL    H15   49   0.226   0.338  -0.381
    1UNL    H16   50   0.010   0.277  -0.288
    1UNL    H17   51   0.074   0.136  -0.190
    1UNL    H18   52  -0.013   0.341   0.061
    1UNL    H19   53   0.136   0.270   0.283
    1UNL    H20   54   0.293   0.088   0.293
    1UNL    H21   55   0.144   0.033   0.377
    1UNL    H22   56   0.110  -0.071   0.166
    1UNL    H23   57  -0.084   0.258   0.279
    1UNL    H24   58  -0.166   0.053   0.363
    1UNL    H25   59  -0.221   0.110   0.132
    1UNL    H26   60  -0.186  -0.198   0.056
    1UNL    H27   61  -0.287  -0.196  -0.162
    1UNL    H28   62  -0.378   0.000  -0.267
    1UNL    H29   63  -0.492  -0.145  -0.268
    1UNL    H30   64  -0.632   0.008  -0.235
    1UNL    H31   65  -0.539  -0.266  -0.052
    1UNL    H32   66  -0.389  -0.403   0.097
    1UNL    H33   67  -0.517  -0.248   0.197
    1UNL    H34   68  -0.557  -0.033   0.034
    1UNL    H35   69  -0.290  -0.181   0.285
    1UNL    H36   70  -0.424   0.042   0.205
    1UNL    H37   71  -0.019   0.069  -0.052
    1UNL    H38   72  -0.239   0.132  -0.095
   0.00000   0.00000   0.00000   0.00000   0.00000   0.00000   0.00000   0.00000   0.00000
Generated with MDTraj, t= 10.0
 72
    1UNL     C1    1   0.445  -0.287  -0.115
    1UNL     C2    2   0.303  -0.259  -0.069
    1UNL     C3    3   0.251  -0.366   0.027
    1UNL     C4    4   0.217  -0.161  -0.106
    1UNL     C5    5   0.240  -0.061  -0.209
    1UNL     C6    6   0.287   0.074  -0.148
    1UNL     O1    7   0.409   0.058  -0.083
    1UNL     C7    8   0.304   0.177  -0.259
    1UNL     C8    9   0.422   0.184  -0.343
    1UNL     C9   10   0.200   0.259  -0.297
    1UNL    C10   11   0.066   0.277  -0.234
    1UNL     O2   12   0.075   0.343  -0.116
    1UNL    C11   13   0.035   0.273   0.004
    1UNL     O3   14   0.147   0.225   0.076
    1UNL    C12   15   0.122   0.184   0.216
    1UNL    C13   16   0.214   0.066   0.259
    1UNL     O4   17   0.190  -0.057   0.188
    1UNL    C14   18  -0.025   0.149   0.251
    1UNL     O5   19  -0.023   0.060   0.358
    1UNL    C15   20  -0.105   0.091   0.136
    1UNL     O6   21  -0.101  -0.049   0.133
    1UNL    C16   22  -0.216  -0.107   0.075
    1UNL     O7   23  -0.264  -0.053  -0.053
    1UNL    C17   24  -0.355  -0.147  -0.111
    1UNL    C18   25  -0.443  -0.074  -0.211
    1UNL     O8   26  -0.510   0.040  -0.152
    1UNL    C19   27  -0.437  -0.237  -0.008
    1UNL     O9   28  -0.365  -0.362   0.013
    1UNL    C20   29  -0.461  -0.163   0.125
    1UNL    O10   30  -0.552  -0.061   0.109
    1UNL    C21   31  -0.321  -0.110   0.184
    1UNL    O11   32  -0.342   0.012   0.243
    1UNL    C22   33  -0.071   0.162  -0.005
    1UNL    O12   34  -0.181   0.194  -0.080
    1UNL     H1   35   0.479  -0.342  -0.032
    1UNL     H2   36   0.496  -0.199  -0.114
    1UNL     H3   37   0.458  -0.344  -0.206
    1UNL     H4   38   0.319  -0.450   0.008
    1UNL     H5   39   0.150  -0.394  -0.009
    1UNL     H6   40   0.265  -0.336   0.133
    1UNL     H7   41   0.127  -0.160  -0.054
    1UNL     H8   42   0.308  -0.103  -0.285
    1UNL     H9   43   0.149  -0.057  -0.273
    1UNL    H10   44   0.211   0.104  -0.070
    1UNL    H11   45   0.390   0.019   0.001
    1UNL    H12   46   0.488   0.255  -0.294
    1UNL    H13   47   0.462   0.081  -0.347
    1UNL    H14   48   0.398   0.239  -0.436
    1UNL    H15   49   0.215   0.318  -0.387
    1UNL    H16   50  -0.011   0.324  -0.295
    1UNL    H17   51   0.036   0.170  -0.220
    1UNL    H18   52  -0.006   0.351   0.063
    1UNL    H19   53   0.149   0.281   0.274
    1UNL    H20   54   0.319   0.087   0.237
    1UNL    H21   55   0.199   0.037   0.362
    1UNL    H22   56   0.093  -0.068   0.175
    1UNL    H23   57  -0.080   0.244   0.282
    1UNL    H24   58  -0.097   0.001   0.352
    1UNL    H25   59  -0.209   0.110   0.144
    1UNL    H26   60  -0.191  -0.203   0.042
    1UNL    H27   61  -0.295  -0.225  -0.164
    1UNL    H28   62  -0.365  -0.023  -0.282
    1UNL    H29   63  -0.508  -0.139  -0.263
    1UNL    H30   64  -0.556   0.087  -0.221
    1UNL    H31   65  -0.535  -0.261  -0.057
    1UNL    H32   66  -0.430  -0.433   0.013
    1UNL    H33   67  -0.500  -0.238   0.204
    1UNL    H34   68  -0.533  -0.014   0.024
    1UNL    H35   69  -0.296  -0.187   0.267
    1UNL    H36   70  -0.439   0.026   0.231
    1UNL    H37   71  -0.016   0.088  -0.053
    1UNL    H38   72  -0.238   0.118  -0.074
   0.00000   0.00000   0.00000   0.00000   0.00000   0.00000   0.00000   0.00000   0.00000
Generated with MDTraj, t= 11.0
 72
    1UNL     C1    1   0.429  -0.246  -0.111
    1UNL     C2    2   0.290  -0.254  -0.051
    1UNL     C3    3   0.261  -0.350   0.068
    1UNL     C4    4   0.195  -0.184  -0.116
    1UNL     C5    5   0.208  -0.071  -0.218
    1UNL     C6    6   0.248   0.065  -0.158
    1UNL     O1    7   0.345   0.036  -0.053
    1UNL     C7    8   0.293   0.175  -0.253
    1UNL     C8    9   0.428   0.171  -0.312
    1UNL     C9   10   0.210   0.277  -0.285
    1UNL    C10   11   0.069   0.276  -0.236
    1UNL     O2   12   0.050   0.344  -0.116
    1UNL    C11   13   0.031   0.262   0.001
    1UNL     O3   14   0.151   0.207   0.057
    1UNL    C12   15   0.132   0.180   0.195
    1UNL    C13   16   0.218   0.065   0.231
    1UNL     O4   17   0.202  -0.046   0.148
    1UNL    C14   18  -0.019   0.151   0.243
    1UNL     O5   19  -0.020   0.065   0.354
    1UNL    C15   20  -0.105   0.083   0.131
    1UNL     O6   21  -0.088  -0.050   0.128
    1UNL    C16   22  -0.203  -0.110   0.078
    1UNL     O7   23  -0.252  -0.064  -0.050
    1UNL    C17   24  -0.346  -0.153  -0.115
    1UNL    C18   25  -0.423  -0.062  -0.210
    1UNL     O8   26  -0.440   0.066  -0.148
    1UNL    C19   27  -0.431  -0.235  -0.017
    1UNL     O9   28  -0.372  -0.362   0.004
    1UNL    C20   29  -0.453  -0.163   0.114
    1UNL    O10   30  -0.534  -0.051   0.100
    1UNL    C21   31  -0.320  -0.124   0.191
    1UNL    O11   32  -0.331  -0.003   0.258
    1UNL    C22   33  -0.082   0.142  -0.014
    1UNL    O12   34  -0.202   0.209  -0.056
    1UNL     H1   35   0.484  -0.319  -0.062
    1UNL     H2   36   0.468  -0.150  -0.101
    1UNL     H3   37   0.431  -0.262  -0.217
    1UNL     H4   38   0.346  -0.338   0.137
    1UNL     H5   39   0.254  -0.452   0.023
    1UNL     H6   40   0.173  -0.312   0.123
    1UNL     H7   41   0.096  -0.190  -0.067
    1UNL     H8   42   0.288  -0.102  -0.293
    1UNL     H9   43   0.129  -0.075  -0.296
    1UNL    H10   44   0.162   0.105  -0.098
    1UNL    H11   45   0.297   0.023   0.028
    1UNL    H12   46   0.488   0.251  -0.266
    1UNL    H13   47   0.485   0.081  -0.285
    1UNL    H14   48   0.440   0.199  -0.419
    1UNL    H15   49   0.252   0.349  -0.349
    1UNL    H16   50   0.009   0.325  -0.313
    1UNL    H17   51   0.012   0.178  -0.237
    1UNL    H18   52  -0.008   0.333   0.069
    1UNL    H19   53   0.182   0.265   0.250
    1UNL    H20   54   0.328   0.086   0.225
    1UNL    H21   55   0.196   0.029   0.333
    1UNL    H22   56   0.105  -0.067   0.144
    1UNL    H23   57  -0.059   0.251   0.283
    1UNL    H24   58  -0.114   0.046   0.384
    1UNL    H25   59  -0.204   0.108   0.150
    1UNL    H26   60  -0.179  -0.211   0.063
    1UNL    H27   61  -0.280  -0.231  -0.165
    1UNL    H28   62  -0.370  -0.051  -0.309
    1UNL    H29   63  -0.529  -0.096  -0.224
    1UNL    H30   64  -0.470   0.126  -0.215
    1UNL    H31   65  -0.529  -0.248  -0.069
    1UNL    H32   66  -0.362  -0.382   0.104
    1UNL    H33   67  -0.513  -0.230   0.189
    1UNL    H34   68  -0.512  -0.010   0.013
    1UNL    H35   69  -0.275  -0.199   0.267
    1UNL    H36   70  -0.415   0.046   0.244
    1UNL    H37   71  -0.047   0.071  -0.080
    1UNL    H38   72  -0.275   0.143  -0.082
   0.00000   0.00000   0.00000   0.00000   0.00000   0.00000   0.00000   0.00000   0.00000
Generated with MDTraj, t= 12.0
 72
    1UNL     C1    1   0.414  -0.250  -0.106
    1UNL     C2    2   0.270  -0.255  -0.071
    1UNL     C3    3   0.235  -0.324   0.057
    1UNL     C4    4   0.172  -0.191  -0.138
    1UNL     C5    5   0.212  -0.074  -0.237
    1UNL     C6    6   0.248   0.046  -0.158
    1UNL     O1    7   0.347   0.017  -0.060
    1UNL     C7    8   0.291   0.172  -0.243
    1UNL     C8    9   0.427   0.174  -0.304
    1UNL     C9   10   0.191   0.251  -0.292
    1UNL    C10   11   0.054   0.243  -0.239
    1UNL     O2   12   0.033   0.321  -0.126
    1UNL    C11   13   0.026   0.264   0.001
    1UNL     O3   14   0.132   0.197   0.056
    1UNL    C12   15   0.122   0.186   0.198
    1UNL    C13   16   0.230   0.082   0.249
    1UNL     O4   17   0.205  -0.048   0.197
    1UNL    C14   18  -0.028   0.157   0.242
    1UNL     O5   19  -0.032   0.082   0.356
    1UNL    C15   20  -0.112   0.090   0.135
    1UNL     O6   21  -0.079  -0.043   0.126
    1UNL    C16   22  -0.180  -0.117   0.075
    1UNL     O7   23  -0.235  -0.056  -0.042
    1UNL    C17   24  -0.319  -0.145  -0.125
    1UNL    C18   25  -0.392  -0.053  -0.221
    1UNL     O8   26  -0.447   0.053  -0.156
    1UNL    C19   27  -0.418  -0.227  -0.034
    1UNL     O9   28  -0.371  -0.353  -0.010
    1UNL    C20   29  -0.431  -0.150   0.110
    1UNL    O10   30  -0.502  -0.019   0.106
    1UNL    C21   31  -0.300  -0.143   0.189
    1UNL    O11   32  -0.307  -0.038   0.275
    1UNL    C22   33  -0.098   0.165   0.000
    1UNL    O12   34  -0.216   0.233  -0.037
    1UNL     H1   35   0.465  -0.337  -0.083
    1UNL     H2   36   0.464  -0.158  -0.079
    1UNL     H3   37   0.424  -0.230  -0.210
    1UNL     H4   38   0.214  -0.247   0.134
    1UNL     H5   39   0.312  -0.389   0.103
    1UNL     H6   40   0.141  -0.382   0.058
    1UNL     H7   41   0.075  -0.183  -0.092
    1UNL     H8   42   0.298  -0.108  -0.306
    1UNL     H9   43   0.136  -0.053  -0.312
    1UNL    H10   44   0.164   0.081  -0.090
    1UNL    H11   45   0.296   0.012   0.033
    1UNL    H12   46   0.481   0.267  -0.275
    1UNL    H13   47   0.497   0.100  -0.260
    1UNL    H14   48   0.439   0.175  -0.413
    1UNL    H15   49   0.222   0.340  -0.359
    1UNL    H16   50  -0.031   0.271  -0.302
    1UNL    H17   51   0.024   0.135  -0.225
    1UNL    H18   52  -0.004   0.344   0.063
    1UNL    H19   53   0.158   0.278   0.244
    1UNL    H20   54   0.335   0.109   0.215
    1UNL    H21   55   0.233   0.069   0.360
    1UNL    H22   56   0.110  -0.051   0.168
    1UNL    H23   57  -0.088   0.253   0.264
    1UNL    H24   58  -0.076  -0.011   0.329
    1UNL    H25   59  -0.216   0.102   0.156
    1UNL    H26   60  -0.149  -0.218   0.057
    1UNL    H27   61  -0.249  -0.217  -0.176
    1UNL    H28   62  -0.323  -0.001  -0.287
    1UNL    H29   63  -0.478  -0.108  -0.282
    1UNL    H30   64  -0.500   0.114  -0.220
    1UNL    H31   65  -0.511  -0.229  -0.092
    1UNL    H32   66  -0.440  -0.423   0.018
    1UNL    H33   67  -0.506  -0.220   0.165
    1UNL    H34   68  -0.486   0.020   0.017
    1UNL    H35   69  -0.275  -0.242   0.236
    1UNL    H36   70  -0.399  -0.016   0.304
    1UNL    H37   71  -0.078   0.090  -0.068
    1UNL    H38   72  -0.278   0.159  -0.071
   0.00000   0.00000   0.00000   0.00000   0.00000   0.00000   0.00000   0.00000   0.00000
Generated with MDTraj, t= 13.0
 72
    1UNL     C1    1   0.388  -0.322  -0.098
    1UNL     C2    2   0.242  -0.294  -0.068
    1UNL     C3    3   0.186  -0.397   0.015
    1UNL     C4    4   0.181  -0.183  -0.111
    1UNL     C5    5   0.235  -0.086  -0.216
    1UNL     C6    6   0.262   0.051  -0.152
    1UNL     O1    7   0.377   0.046  -0.067
    1UNL     C7    8   0.286   0.156  -0.255
    1UNL     C8    9   0.425   0.174  -0.308
    1UNL     C9   10   0.184   0.239  -0.301
    1UNL    C10   11   0.045   0.238  -0.247
    1UNL     O2   12   0.024   0.332  -0.137
    1UNL    C11   13   0.004   0.280  -0.003
    1UNL     O3   14   0.127   0.235   0.064
    1UNL    C12   15   0.115   0.221   0.205
    1UNL    C13   16   0.221   0.123   0.254
    1UNL     O4   17   0.205  -0.008   0.198
    1UNL    C14   18  -0.029   0.179   0.257
    1UNL     O5   19  -0.036   0.099   0.376
    1UNL    C15   20  -0.115   0.099   0.149
    1UNL     O6   21  -0.070  -0.034   0.134
    1UNL    C16   22  -0.169  -0.114   0.068
    1UNL     O7   23  -0.233  -0.040  -0.045
    1UNL    C17   24  -0.315  -0.132  -0.119
    1UNL    C18   25  -0.378  -0.050  -0.231
    1UNL     O8   26  -0.449   0.059  -0.175
    1UNL    C19   27  -0.422  -0.219  -0.038
    1UNL     O9   28  -0.389  -0.356  -0.047
    1UNL    C20   29  -0.415  -0.166   0.106
    1UNL    O10   30  -0.458  -0.030   0.121
    1UNL    C21   31  -0.278  -0.176   0.176
    1UNL    O11   32  -0.269  -0.095   0.286
    1UNL    C22   33  -0.116   0.174   0.005
    1UNL    O12   34  -0.241   0.238  -0.021
    1UNL     H1   35   0.422  -0.387  -0.021
    1UNL     H2   36   0.444  -0.229  -0.110
    1UNL     H3   37   0.410  -0.362  -0.190
    1UNL     H4   38   0.093  -0.364   0.068
    1UNL     H5   39   0.243  -0.432   0.104
    1UNL     H6   40   0.157  -0.486  -0.041
    1UNL     H7   41   0.089  -0.149  -0.071
    1UNL     H8   42   0.335  -0.129  -0.255
    1UNL     H9   43   0.170  -0.081  -0.302
    1UNL    H10   44   0.171   0.082  -0.093
    1UNL    H11   45   0.366   0.030   0.026
    1UNL    H12   46   0.446   0.283  -0.298
    1UNL    H13   47   0.488   0.123  -0.231
    1UNL    H14   48   0.448   0.140  -0.409
    1UNL    H15   49   0.209   0.323  -0.353
    1UNL    H16   50  -0.016   0.259  -0.333
    1UNL    H17   51   0.005   0.136  -0.218
    1UNL    H18   52  -0.029   0.365   0.054
    1UNL    H19   53   0.139   0.317   0.246
    1UNL    H20   54   0.322   0.154   0.215
    1UNL    H21   55   0.223   0.114   0.365
    1UNL    H22   56   0.109  -0.025   0.174
    1UNL    H23   57  -0.092   0.267   0.284
    1UNL    H24   58  -0.020   0.012   0.351
    1UNL    H25   59  -0.215   0.091   0.181
    1UNL    H26   60  -0.104  -0.192   0.024
    1UNL    H27   61  -0.245  -0.213  -0.152
    1UNL    H28   62  -0.306  -0.013  -0.299
    1UNL    H29   63  -0.464  -0.114  -0.287
    1UNL    H30   64  -0.491   0.123  -0.244
    1UNL    H31   65  -0.522  -0.193  -0.074
    1UNL    H32   66  -0.471  -0.405  -0.025
    1UNL    H33   67  -0.484  -0.231   0.172
    1UNL    H34   68  -0.443   0.017   0.035
    1UNL    H35   69  -0.254  -0.276   0.211
    1UNL    H36   70  -0.355  -0.057   0.313
    1UNL    H37   71  -0.090   0.099  -0.061
    1UNL    H38   72  -0.297   0.168  -0.069
   0.00000   0.00000   0.00000   0.00000   0.00000   0.00000   0.00000   0.00000   0.00000
Generated with MDTraj, t= 14.0
 72
    1UNL     C1    1   0.362  -0.354  -0.113
    1UNL     C2    2   0.225  -0.308  -0.081
    1UNL     C3    3   0.135  -0.401  -0.000
    1UNL     C4    4   0.180  -0.190  -0.111
    1UNL     C5    5   0.250  -0.089  -0.188
    1UNL     C6    6   0.279   0.052  -0.121
    1UNL     O1    7   0.398   0.034  -0.045
    1UNL     C7    8   0.290   0.148  -0.224
    1UNL     C8    9   0.423   0.148  -0.292
    1UNL     C9   10   0.194   0.236  -0.272
    1UNL    C10   11   0.047   0.231  -0.234
    1UNL     O2   12  -0.005   0.333  -0.148
    1UNL    C11   13  -0.020   0.285  -0.015
    1UNL     O3   14   0.100   0.241   0.052
    1UNL    C12   15   0.093   0.238   0.198
    1UNL    C13   16   0.212   0.155   0.245
    1UNL     O4   17   0.208   0.034   0.177
    1UNL    C14   18  -0.045   0.182   0.243
    1UNL     O5   19  -0.032   0.093   0.355
    1UNL    C15   20  -0.123   0.103   0.135
    1UNL     O6   21  -0.066  -0.023   0.120
    1UNL    C16   22  -0.146  -0.123   0.056
    1UNL     O7   23  -0.205  -0.062  -0.057
    1UNL    C17   24  -0.313  -0.130  -0.124
    1UNL    C18   25  -0.380  -0.031  -0.215
    1UNL     O8   26  -0.440   0.072  -0.146
    1UNL    C19   27  -0.411  -0.213  -0.035
    1UNL     O9   28  -0.390  -0.350  -0.054
    1UNL    C20   29  -0.393  -0.171   0.110
    1UNL    O10   30  -0.442  -0.035   0.133
    1UNL    C21   31  -0.240  -0.186   0.165
    1UNL    O11   32  -0.235  -0.119   0.281
    1UNL    C22   33  -0.137   0.188   0.003
    1UNL    O12   34  -0.258   0.255  -0.016
    1UNL     H1   35   0.389  -0.407  -0.025
    1UNL     H2   36   0.425  -0.271  -0.137
    1UNL     H3   37   0.371  -0.418  -0.194
    1UNL     H4   38   0.027  -0.379  -0.012
    1UNL     H5   39   0.142  -0.393   0.111
    1UNL     H6   40   0.159  -0.502  -0.037
    1UNL     H7   41   0.085  -0.154  -0.061
    1UNL     H8   42   0.347  -0.130  -0.224
    1UNL     H9   43   0.196  -0.072  -0.281
    1UNL    H10   44   0.184   0.073  -0.064
    1UNL    H11   45   0.386   0.011   0.054
    1UNL    H12   46   0.460   0.252  -0.302
    1UNL    H13   47   0.486   0.103  -0.213
    1UNL    H14   48   0.432   0.088  -0.385
    1UNL    H15   49   0.226   0.331  -0.327
    1UNL    H16   50  -0.017   0.221  -0.320
    1UNL    H17   51   0.030   0.130  -0.185
    1UNL    H18   52  -0.049   0.375   0.039
    1UNL    H19   53   0.100   0.342   0.219
    1UNL    H20   54   0.313   0.199   0.225
    1UNL    H21   55   0.202   0.124   0.350
    1UNL    H22   56   0.114   0.012   0.157
    1UNL    H23   57  -0.102   0.267   0.280
    1UNL    H24   58   0.002  -0.003   0.334
    1UNL    H25   59  -0.223   0.096   0.168
    1UNL    H26   60  -0.067  -0.191   0.023
    1UNL    H27   61  -0.274  -0.216  -0.182
    1UNL    H28   62  -0.305   0.008  -0.277
    1UNL    H29   63  -0.464  -0.080  -0.286
    1UNL    H30   64  -0.484   0.131  -0.205
    1UNL    H31   65  -0.511  -0.194  -0.073
    1UNL    H32   66  -0.414  -0.396   0.025
    1UNL    H33   67  -0.442  -0.255   0.170
    1UNL    H34   68  -0.440   0.010   0.046
    1UNL    H35   69  -0.228  -0.288   0.192
    1UNL    H36   70  -0.328  -0.107   0.312
    1UNL    H37   71  -0.123   0.130  -0.082
    1UNL    H38   72  -0.324   0.199  -0.054
   0.00000   0.00000   0.00000   0.00000   0.00000   0.00000   0.00000   0.00000   0.00000
Generated with MDTraj, t= 15.0
 72
    1UNL     C1    1   0.328  -0.374  -0.145
    1UNL     C2    2   0.206  -0.309  -0.083
    1UNL     C3    3   0.117  -0.381   0.021
    1UNL     C4    4   0.176  -0.185  -0.110
    1UNL     C5    5   0.249  -0.094  -0.204
    1UNL     C6    6   0.286   0.036  -0.125
    1UNL     O1    7   0.385   0.010  -0.025
    1UNL     C7    8   0.317   0.163  -0.203
    1UNL     C8    9   0.449   0.204  -0.245
    1UNL     C9   10   0.209   0.229  -0.255
    1UNL    C10   11   0.060   0.196  -0.232
    1UNL     O2   12  -0.012   0.298  -0.163
    1UNL    C11   13  -0.015   0.288  -0.025
    1UNL     O3   14   0.107   0.240   0.039
    1UNL    C12   15   0.093   0.248   0.184
    1UNL    C13   16   0.202   0.171   0.251
    1UNL     O4   17   0.207   0.031   0.226
    1UNL    C14   18  -0.037   0.187   0.229
    1UNL     O5   19  -0.024   0.096   0.338
    1UNL    C15   20  -0.108   0.098   0.117
    1UNL     O6   21  -0.041  -0.017   0.077
    1UNL    C16   22  -0.146  -0.111   0.033
    1UNL     O7   23  -0.234  -0.043  -0.057
    1UNL    C17   24  -0.331  -0.132  -0.128
    1UNL    C18   25  -0.420  -0.039  -0.210
    1UNL     O8   26  -0.481   0.063  -0.131
    1UNL    C19   27  -0.414  -0.227  -0.029
    1UNL     O9   28  -0.359  -0.359  -0.045
    1UNL    C20   29  -0.382  -0.171   0.112
    1UNL    O10   30  -0.430  -0.039   0.131
    1UNL    C21   31  -0.231  -0.180   0.147
    1UNL    O11   32  -0.203  -0.110   0.266
    1UNL    C22   33  -0.137   0.194  -0.003
    1UNL    O12   34  -0.258   0.260   0.017
    1UNL     H1   35   0.301  -0.473  -0.176
    1UNL     H2   36   0.411  -0.373  -0.080
    1UNL     H3   37   0.366  -0.327  -0.234
    1UNL     H4   38   0.082  -0.478  -0.017
    1UNL     H5   39   0.024  -0.324   0.039
    1UNL     H6   40   0.191  -0.394   0.103
    1UNL     H7   41   0.098  -0.137  -0.057
    1UNL     H8   42   0.343  -0.130  -0.240
    1UNL     H9   43   0.182  -0.070  -0.290
    1UNL    H10   44   0.188   0.052  -0.072
    1UNL    H11   45   0.349   0.015   0.065
    1UNL    H12   46   0.470   0.313  -0.231
    1UNL    H13   47   0.524   0.159  -0.178
    1UNL    H14   48   0.483   0.177  -0.349
    1UNL    H15   49   0.206   0.320  -0.310
    1UNL    H16   50   0.012   0.184  -0.327
    1UNL    H17   51   0.031   0.093  -0.189
    1UNL    H18   52  -0.042   0.386   0.016
    1UNL    H19   53   0.090   0.355   0.198
    1UNL    H20   54   0.299   0.205   0.215
    1UNL    H21   55   0.192   0.179   0.358
    1UNL    H22   56   0.119  -0.000   0.193
    1UNL    H23   57  -0.099   0.269   0.254
    1UNL    H24   58  -0.091   0.032   0.342
    1UNL    H25   59  -0.207   0.077   0.149
    1UNL    H26   60  -0.085  -0.180  -0.020
    1UNL    H27   61  -0.279  -0.205  -0.190
    1UNL    H28   62  -0.366  -0.002  -0.293
    1UNL    H29   63  -0.509  -0.103  -0.257
    1UNL    H30   64  -0.533   0.116  -0.193
    1UNL    H31   65  -0.522  -0.215  -0.046
    1UNL    H32   66  -0.376  -0.406   0.040
    1UNL    H33   67  -0.445  -0.222   0.188
    1UNL    H34   68  -0.444   0.005   0.043
    1UNL    H35   69  -0.205  -0.280   0.169
    1UNL    H36   70  -0.264  -0.121   0.344
    1UNL    H37   71  -0.150   0.147  -0.097
    1UNL    H38   72  -0.331   0.204  -0.026
   0.00000   0.00000   0.00000   0.00000   0.00000   0.00000   0.00000   0.00000   0.00000
Generated with MDTraj, t= 16.0
 72
    1UNL     C1    1   0.272  -0.384  -0.184
    1UNL     C2    2   0.202  -0.311  -0.070
    1UNL     C3    3   0.138  -0.400   0.030
    1UNL     C4    4   0.191  -0.180  -0.072
    1UNL     C5    5   0.245  -0.082  -0.178
    1UNL     C6    6   0.285   0.041  -0.106
    1UNL     O1    7   0.388   0.012  -0.004
    1UNL     C7    8   0.324   0.153  -0.191
    1UNL     C8    9   0.452   0.228  -0.168
    1UNL     C9   10   0.236   0.237  -0.251
    1UNL    C10   11   0.087   0.212  -0.252
    1UNL     O2   12   0.024   0.320  -0.181
    1UNL    C11   13  -0.003   0.284  -0.046
    1UNL     O3   14   0.112   0.234   0.023
    1UNL    C12   15   0.100   0.247   0.162
    1UNL    C13   16   0.222   0.174   0.227
    1UNL     O4   17   0.218   0.036   0.188
    1UNL    C14   18  -0.036   0.185   0.212
    1UNL     O5   19  -0.014   0.085   0.311
    1UNL    C15   20  -0.118   0.113   0.103
    1UNL     O6   21  -0.065  -0.011   0.076
    1UNL    C16   22  -0.158  -0.100   0.024
    1UNL     O7   23  -0.251  -0.035  -0.053
    1UNL    C17   24  -0.345  -0.128  -0.119
    1UNL    C18   25  -0.451  -0.045  -0.183
    1UNL     O8   26  -0.513   0.047  -0.097
    1UNL    C19   27  -0.404  -0.231  -0.021
    1UNL     O9   28  -0.345  -0.361  -0.057
    1UNL    C20   29  -0.379  -0.186   0.128
    1UNL    O10   30  -0.442  -0.059   0.158
    1UNL    C21   31  -0.223  -0.186   0.140
    1UNL    O11   32  -0.208  -0.136   0.276
    1UNL    C22   33  -0.140   0.201  -0.027
    1UNL    O12   34  -0.263   0.275  -0.025
    1UNL     H1   35   0.240  -0.483  -0.203
    1UNL     H2   36   0.372  -0.378  -0.157
    1UNL     H3   37   0.252  -0.332  -0.279
    1UNL     H4   38   0.213  -0.459   0.084
    1UNL     H5   39   0.076  -0.473  -0.024
    1UNL     H6   40   0.090  -0.339   0.109
    1UNL     H7   41   0.121  -0.134  -0.005
    1UNL     H8   42   0.334  -0.122  -0.219
    1UNL     H9   43   0.166  -0.058  -0.252
    1UNL    H10   44   0.203   0.083  -0.044
    1UNL    H11   45   0.353  -0.001   0.093
    1UNL    H12   46   0.442   0.298  -0.081
    1UNL    H13   47   0.535   0.165  -0.131
    1UNL    H14   48   0.507   0.286  -0.247
    1UNL    H15   49   0.269   0.330  -0.294
    1UNL    H16   50   0.036   0.193  -0.346
    1UNL    H17   51   0.058   0.112  -0.203
    1UNL    H18   52  -0.022   0.379   0.010
    1UNL    H19   53   0.100   0.354   0.187
    1UNL    H20   54   0.319   0.217   0.210
    1UNL    H21   55   0.205   0.166   0.331
    1UNL    H22   56   0.127   0.017   0.150
    1UNL    H23   57  -0.094   0.255   0.263
    1UNL    H24   58  -0.084   0.011   0.289
    1UNL    H25   59  -0.211   0.084   0.146
    1UNL    H26   60  -0.096  -0.156  -0.046
    1UNL    H27   61  -0.294  -0.188  -0.192
    1UNL    H28   62  -0.401   0.005  -0.261
    1UNL    H29   63  -0.527  -0.119  -0.231
    1UNL    H30   64  -0.586   0.096  -0.151
    1UNL    H31   65  -0.512  -0.235  -0.047
    1UNL    H32   66  -0.365  -0.434   0.012
    1UNL    H33   67  -0.436  -0.258   0.184
    1UNL    H34   68  -0.473  -0.023   0.073
    1UNL    H35   69  -0.189  -0.288   0.140
    1UNL    H36   70  -0.262  -0.056   0.291
    1UNL    H37   71  -0.137   0.132  -0.106
    1UNL    H38   72  -0.328   0.203  -0.039
   0.00000   0.00000   0.00000   0.00000   0.00000   0.00000   0.00000   0.00000   0.00000
Generated with MDTraj, t= 17.0
 72
    1UNL     C1    1   0.213  -0.360  -0.222
    1UNL     C2    2   0.202  -0.303  -0.087
    1UNL     C3    3   0.154  -0.393   0.014
    1UNL     C4    4   0.203  -0.176  -0.054
    1UNL     C5    5   0.252  -0.069  -0.148
    1UNL     C6    6   0.310   0.049  -0.078
    1UNL     O1    7   0.416   0.009   0.008
    1UNL     C7    8   0.348   0.166  -0.167
    1UNL     C8    9   0.490   0.206  -0.184
    1UNL     C9   10   0.254   0.239  -0.227
    1UNL    C10   11   0.107   0.211  -0.238
    1UNL     O2   12   0.027   0.318  -0.194
    1UNL    C11   13  -0.004   0.297  -0.059
    1UNL     O3   14   0.110   0.256   0.022
    1UNL    C12   15   0.102   0.253   0.163
    1UNL    C13   16   0.217   0.166   0.222
    1UNL     O4   17   0.202   0.032   0.181
    1UNL    C14   18  -0.041   0.198   0.199
    1UNL     O5   19  -0.042   0.124   0.318
    1UNL    C15   20  -0.109   0.107   0.088
    1UNL     O6   21  -0.054  -0.018   0.069
    1UNL    C16   22  -0.158  -0.105   0.030
    1UNL     O7   23  -0.256  -0.037  -0.051
    1UNL    C17   24  -0.362  -0.120  -0.111
    1UNL    C18   25  -0.476  -0.039  -0.158
    1UNL     O8   26  -0.527   0.047  -0.056
    1UNL    C19   27  -0.408  -0.236  -0.024
    1UNL     O9   28  -0.355  -0.358  -0.078
    1UNL    C20   29  -0.381  -0.218   0.129
    1UNL    O10   30  -0.461  -0.120   0.183
    1UNL    C21   31  -0.224  -0.179   0.146
    1UNL    O11   32  -0.214  -0.105   0.269
    1UNL    C22   33  -0.122   0.186  -0.052
    1UNL    O12   34  -0.252   0.235  -0.069
    1UNL     H1   35   0.238  -0.462  -0.221
    1UNL     H2   36   0.294  -0.306  -0.261
    1UNL     H3   37   0.114  -0.361  -0.272
    1UNL     H4   38   0.182  -0.377   0.119
    1UNL     H5   39   0.187  -0.495  -0.005
    1UNL     H6   40   0.045  -0.392   0.025
    1UNL     H7   41   0.173  -0.144   0.049
    1UNL     H8   42   0.324  -0.116  -0.207
    1UNL     H9   43   0.162  -0.046  -0.205
    1UNL    H10   44   0.231   0.089  -0.012
    1UNL    H11   45   0.383  -0.037   0.083
    1UNL    H12   46   0.525   0.254  -0.090
    1UNL    H13   47   0.542   0.109  -0.197
    1UNL    H14   48   0.503   0.266  -0.277
    1UNL    H15   49   0.277   0.330  -0.288
    1UNL    H16   50   0.083   0.195  -0.343
    1UNL    H17   51   0.062   0.109  -0.207
    1UNL    H18   52  -0.043   0.394  -0.018
    1UNL    H19   53   0.121   0.352   0.209
    1UNL    H20   54   0.310   0.191   0.172
    1UNL    H21   55   0.235   0.172   0.326
    1UNL    H22   56   0.107   0.006   0.190
    1UNL    H23   57  -0.108   0.276   0.207
    1UNL    H24   58  -0.100   0.044   0.307
    1UNL    H25   59  -0.211   0.090   0.121
    1UNL    H26   60  -0.115  -0.172  -0.045
    1UNL    H27   61  -0.314  -0.163  -0.197
    1UNL    H28   62  -0.440   0.014  -0.246
    1UNL    H29   63  -0.552  -0.120  -0.187
    1UNL    H30   64  -0.601   0.108  -0.084
    1UNL    H31   65  -0.520  -0.238  -0.030
    1UNL    H32   66  -0.399  -0.435  -0.031
    1UNL    H33   67  -0.397  -0.304   0.187
    1UNL    H34   68  -0.496  -0.063   0.110
    1UNL    H35   69  -0.171  -0.271   0.177
    1UNL    H36   70  -0.290  -0.040   0.272
    1UNL    H37   71  -0.115   0.129  -0.142
    1UNL    H38   72  -0.321   0.162  -0.059
   0.00000   0.00000   0.00000   0.00000   0.00000   0.00000   0.00000   0.00000   0.00000
Generated with MDTraj, t= 18.0
 72
    1UNL     C1    1   0.152  -0.336  -0.249
    1UNL     C2    2   0.187  -0.308  -0.108
    1UNL     C3    3   0.134  -0.392   0.009
    1UNL     C4    4   0.249  -0.193  -0.079
    1UNL     C5    5   0.313  -0.084  -0.159
    1UNL     C6    6   0.324   0.059  -0.094
    1UNL     O1    7   0.409   0.057   0.027
    1UNL     C7    8   0.366   0.163  -0.193
    1UNL     C8    9   0.509   0.194  -0.207
    1UNL     C9   10   0.281   0.231  -0.270
    1UNL    C10   11   0.129   0.216  -0.273
    1UNL     O2   12   0.050   0.305  -0.194
    1UNL    C11   13   0.012   0.277  -0.059
    1UNL     O3   14   0.112   0.238   0.032
    1UNL    C12   15   0.080   0.247   0.167
    1UNL    C13   16   0.183   0.171   0.252
    1UNL     O4   17   0.180   0.035   0.216
    1UNL    C14   18  -0.067   0.200   0.202
    1UNL     O5   19  -0.076   0.118   0.320
    1UNL    C15   20  -0.124   0.122   0.086
    1UNL     O6   21  -0.061  -0.003   0.077
    1UNL    C16   22  -0.157  -0.107   0.045
    1UNL     O7   23  -0.253  -0.045  -0.047
    1UNL    C17   24  -0.365  -0.122  -0.111
    1UNL    C18   25  -0.491  -0.038  -0.131
    1UNL     O8   26  -0.506   0.053  -0.012
    1UNL    C19   27  -0.398  -0.252  -0.026
    1UNL     O9   28  -0.322  -0.360  -0.072
    1UNL    C20   29  -0.379  -0.236   0.129
    1UNL    O10   30  -0.476  -0.156   0.180
    1UNL    C21   31  -0.233  -0.176   0.164
    1UNL    O11   32  -0.246  -0.085   0.266
    1UNL    C22   33  -0.114   0.194  -0.048
    1UNL    O12   34  -0.230   0.264  -0.082
    1UNL     H1   35   0.150  -0.441  -0.264
    1UNL     H2   36   0.221  -0.296  -0.324
    1UNL     H3   37   0.046  -0.319  -0.266
    1UNL     H4   38   0.074  -0.335   0.082
    1UNL     H5   39   0.222  -0.434   0.057
    1UNL     H6   40   0.068  -0.471  -0.026
    1UNL     H7   41   0.262  -0.168   0.020
    1UNL     H8   42   0.408  -0.127  -0.179
    1UNL     H9   43   0.259  -0.083  -0.250
    1UNL    H10   44   0.221   0.079  -0.061
    1UNL    H11   45   0.341   0.024   0.100
    1UNL    H12   46   0.531   0.275  -0.135
    1UNL    H13   47   0.553   0.097  -0.178
    1UNL    H14   48   0.527   0.214  -0.314
    1UNL    H15   49   0.314   0.295  -0.341
    1UNL    H16   50   0.091   0.224  -0.376
    1UNL    H17   51   0.096   0.110  -0.247
    1UNL    H18   52  -0.012   0.381  -0.021
    1UNL    H19   53   0.097   0.355   0.193
    1UNL    H20   54   0.287   0.207   0.240
    1UNL    H21   55   0.162   0.174   0.358
    1UNL    H22   56   0.089   0.012   0.189
    1UNL    H23   57  -0.129   0.284   0.216
    1UNL    H24   58  -0.128   0.037   0.307
    1UNL    H25   59  -0.226   0.091   0.120
    1UNL    H26   60  -0.107  -0.186  -0.016
    1UNL    H27   61  -0.325  -0.148  -0.209
    1UNL    H28   62  -0.481   0.020  -0.226
    1UNL    H29   63  -0.575  -0.114  -0.139
    1UNL    H30   64  -0.572   0.119  -0.022
    1UNL    H31   65  -0.505  -0.279  -0.044
    1UNL    H32   66  -0.350  -0.447  -0.045
    1UNL    H33   67  -0.387  -0.328   0.174
    1UNL    H34   68  -0.491  -0.080   0.118
    1UNL    H35   69  -0.168  -0.261   0.201
    1UNL    H36   70  -0.341  -0.075   0.283
    1UNL    H37   71  -0.100   0.119  -0.123
    1UNL    H38   72  -0.307   0.205  -0.070
   0.00000   0.00000   0.00000   0.00000   0.00000   0.00000   0.00000   0.00000   0.00000
Generated with MDTraj, t= 19.0
 72
    1UNL     C1    1   0.120  -0.269  -0.253
    1UNL     C2    2   0.181  -0.278  -0.117
    1UNL     C3    3   0.107  -0.370  -0.011
    1UNL     C4    4   0.284  -0.206  -0.074
    1UNL     C5    5   0.349  -0.099  -0.151
    1UNL     C6    6   0.317   0.044  -0.097
    1UNL     O1    7   0.397   0.056   0.021
    1UNL     C7    8   0.348   0.149  -0.201
    1UNL     C8    9   0.500   0.181  -0.217
    1UNL     C9   10   0.260   0.208  -0.281
    1UNL    C10   11   0.110   0.199  -0.275
    1UNL     O2   12   0.058   0.308  -0.191
    1UNL    C11   13   0.024   0.271  -0.056
    1UNL     O3   14   0.128   0.224   0.036
    1UNL    C12   15   0.093   0.245   0.174
    1UNL    C13   16   0.191   0.175   0.263
    1UNL     O4   17   0.183   0.035   0.235
    1UNL    C14   18  -0.057   0.204   0.202
    1UNL     O5   19  -0.078   0.143   0.332
    1UNL    C15   20  -0.123   0.113   0.090
    1UNL     O6   21  -0.067  -0.016   0.087
    1UNL    C16   22  -0.168  -0.102   0.038
    1UNL     O7   23  -0.269  -0.042  -0.042
    1UNL    C17   24  -0.363  -0.127  -0.106
    1UNL    C18   25  -0.496  -0.050  -0.112
    1UNL     O8   26  -0.508   0.049  -0.013
    1UNL    C19   27  -0.366  -0.263  -0.029
    1UNL     O9   28  -0.261  -0.339  -0.064
    1UNL    C20   29  -0.377  -0.241   0.124
    1UNL    O10   30  -0.502  -0.171   0.155
    1UNL    C21   31  -0.242  -0.167   0.168
    1UNL    O11   32  -0.275  -0.068   0.256
    1UNL    C22   33  -0.105   0.183  -0.046
    1UNL    O12   34  -0.226   0.259  -0.082
    1UNL     H1   35   0.024  -0.321  -0.257
    1UNL     H2   36   0.190  -0.311  -0.328
    1UNL     H3   37   0.090  -0.170  -0.275
    1UNL     H4   38  -0.001  -0.371  -0.026
    1UNL     H5   39   0.139  -0.333   0.087
    1UNL     H6   40   0.142  -0.470  -0.029
    1UNL     H7   41   0.329  -0.238   0.023
    1UNL     H8   42   0.456  -0.110  -0.165
    1UNL     H9   43   0.318  -0.106  -0.250
    1UNL    H10   44   0.213   0.060  -0.064
    1UNL    H11   45   0.351   0.022   0.095
    1UNL    H12   46   0.531   0.283  -0.240
    1UNL    H13   47   0.548   0.155  -0.121
    1UNL    H14   48   0.548   0.113  -0.289
    1UNL    H15   49   0.301   0.258  -0.375
    1UNL    H16   50   0.072   0.219  -0.376
    1UNL    H17   51   0.074   0.096  -0.239
    1UNL    H18   52  -0.008   0.371  -0.012
    1UNL    H19   53   0.105   0.355   0.179
    1UNL    H20   54   0.298   0.198   0.236
    1UNL    H21   55   0.187   0.197   0.373
    1UNL    H22   56   0.100   0.022   0.184
    1UNL    H23   57  -0.109   0.297   0.196
    1UNL    H24   58  -0.131   0.060   0.314
    1UNL    H25   59  -0.232   0.095   0.120
    1UNL    H26   60  -0.118  -0.183  -0.021
    1UNL    H27   61  -0.329  -0.141  -0.212
    1UNL    H28   62  -0.507  -0.004  -0.219
    1UNL    H29   63  -0.573  -0.129  -0.102
    1UNL    H30   64  -0.581   0.108  -0.046
    1UNL    H31   65  -0.457  -0.322  -0.051
    1UNL    H32   66  -0.273  -0.430  -0.035
    1UNL    H33   67  -0.390  -0.331   0.174
    1UNL    H34   68  -0.502  -0.090   0.100
    1UNL    H35   69  -0.157  -0.231   0.212
    1UNL    H36   70  -0.373  -0.077   0.275
    1UNL    H37   71  -0.092   0.107  -0.121
    1UNL    H38   72  -0.307   0.212  -0.068
   0.00000   0.00000   0.00000   0.00000   0.00000   0.00000   0.00000   0.00000   0.00000
Generated with MDTraj, t= 20.0
 72
    1UNL     C1    1   0.065  -0.201  -0.215
    1UNL     C2    2   0.155  -0.258  -0.105
    1UNL     C3    3   0.090  -0.371  -0.039
    1UNL     C4    4   0.279  -0.217  -0.075
    1UNL     C5    5   0.356  -0.115  -0.155
    1UNL     C6    6   0.332   0.028  -0.101
    1UNL     O1    7   0.401   0.056   0.023
    1UNL     C7    8   0.359   0.138  -0.202
    1UNL     C8    9   0.492   0.166  -0.226
    1UNL     C9   10   0.259   0.208  -0.252
    1UNL    C10   11   0.115   0.185  -0.242
    1UNL     O2   12   0.041   0.293  -0.189
    1UNL    C11   13   0.007   0.280  -0.057
    1UNL     O3   14   0.109   0.235   0.031
    1UNL    C12   15   0.096   0.250   0.173
    1UNL    C13   16   0.200   0.158   0.238
    1UNL     O4   17   0.183   0.024   0.198
    1UNL    C14   18  -0.050   0.214   0.216
    1UNL     O5   19  -0.052   0.136   0.334
    1UNL    C15   20  -0.121   0.126   0.103
    1UNL     O6   21  -0.066  -0.006   0.097
    1UNL    C16   22  -0.163  -0.089   0.050
    1UNL     O7   23  -0.252  -0.031  -0.035
    1UNL    C17   24  -0.327  -0.130  -0.106
    1UNL    C18   25  -0.453  -0.051  -0.143
    1UNL     O8   26  -0.525   0.015  -0.041
    1UNL    C19   27  -0.353  -0.268  -0.026
    1UNL     O9   28  -0.249  -0.345  -0.065
    1UNL    C20   29  -0.366  -0.243   0.126
    1UNL    O10   30  -0.490  -0.188   0.163
    1UNL    C21   31  -0.253  -0.150   0.176
    1UNL    O11   32  -0.293  -0.033   0.251
    1UNL    C22   33  -0.112   0.186  -0.037
    1UNL    O12   34  -0.241   0.240  -0.088
    1UNL     H1   35  -0.028  -0.148  -0.192
    1UNL     H2   36   0.042  -0.279  -0.290
    1UNL     H3   37   0.120  -0.125  -0.265
    1UNL     H4   38   0.046  -0.441  -0.109
    1UNL     H5   39   0.013  -0.337   0.031
    1UNL     H6   40   0.161  -0.433   0.014
    1UNL     H7   41   0.329  -0.260   0.007
    1UNL     H8   42   0.463  -0.134  -0.157
    1UNL     H9   43   0.339  -0.116  -0.257
    1UNL    H10   44   0.228   0.046  -0.071
    1UNL    H11   45   0.344   0.026   0.105
    1UNL    H12   46   0.513   0.241  -0.302
    1UNL    H13   47   0.551   0.195  -0.138
    1UNL    H14   48   0.542   0.081  -0.271
    1UNL    H15   49   0.281   0.288  -0.314
    1UNL    H16   50   0.073   0.178  -0.345
    1UNL    H17   51   0.102   0.097  -0.172
    1UNL    H18   52  -0.024   0.381  -0.018
    1UNL    H19   53   0.111   0.357   0.186
    1UNL    H20   54   0.307   0.194   0.226
    1UNL    H21   55   0.182   0.158   0.349
    1UNL    H22   56   0.090   0.003   0.171
    1UNL    H23   57  -0.109   0.306   0.235
    1UNL    H24   58  -0.113   0.064   0.322
    1UNL    H25   59  -0.230   0.112   0.127
    1UNL    H26   60  -0.115  -0.175  -0.000
    1UNL    H27   61  -0.278  -0.169  -0.202
    1UNL    H28   62  -0.413   0.032  -0.220
    1UNL    H29   63  -0.518  -0.114  -0.201
    1UNL    H30   64  -0.570   0.098  -0.085
    1UNL    H31   65  -0.438  -0.331  -0.055
    1UNL    H32   66  -0.252  -0.440  -0.037
    1UNL    H33   67  -0.362  -0.335   0.176
    1UNL    H34   68  -0.512  -0.111   0.105
    1UNL    H35   69  -0.184  -0.210   0.241
    1UNL    H36   70  -0.389  -0.042   0.262
    1UNL    H37   71  -0.102   0.105  -0.110
    1UNL    H38   72  -0.321   0.180  -0.070
   0.00000   0.00000   0.00000   0.00000   0.00000   0.00000   0.00000   0.00000   0.00000
Generated with MDTraj, t= 21.0
 72
    1UNL     C1    1   0.040  -0.156  -0.172
    1UNL     C2    2   0.138  -0.240  -0.098
    1UNL     C3    3   0.084  -0.369  -0.046
    1UNL     C4    4   0.270  -0.223  -0.113
    1UNL     C5    5   0.337  -0.108  -0.183
    1UNL     C6    6   0.334   0.020  -0.101
    1UNL     O1    7   0.423   0.019   0.008
    1UNL     C7    8   0.355   0.137  -0.189
    1UNL     C8    9   0.499   0.177  -0.209
    1UNL     C9   10   0.259   0.205  -0.240
    1UNL    C10   11   0.114   0.175  -0.231
    1UNL     O2   12   0.043   0.295  -0.187
    1UNL    C11   13   0.012   0.288  -0.054
    1UNL     O3   14   0.124   0.244   0.025
    1UNL    C12   15   0.102   0.255   0.167
    1UNL    C13   16   0.203   0.174   0.246
    1UNL     O4   17   0.210   0.045   0.196
    1UNL    C14   18  -0.046   0.218   0.212
    1UNL     O5   19  -0.044   0.150   0.339
    1UNL    C15   20  -0.119   0.127   0.101
    1UNL     O6   21  -0.061  -0.001   0.089
    1UNL    C16   22  -0.160  -0.094   0.063
    1UNL     O7   23  -0.254  -0.054  -0.040
    1UNL    C17   24  -0.328  -0.154  -0.115
    1UNL    C18   25  -0.453  -0.092  -0.187
    1UNL     O8   26  -0.529  -0.017  -0.092
    1UNL    C19   27  -0.354  -0.279  -0.025
    1UNL     O9   28  -0.249  -0.380  -0.043
    1UNL    C20   29  -0.382  -0.234   0.130
    1UNL    O10   30  -0.504  -0.156   0.154
    1UNL    C21   31  -0.256  -0.151   0.179
    1UNL    O11   32  -0.291  -0.043   0.267
    1UNL    C22   33  -0.114   0.199  -0.036
    1UNL    O12   34  -0.239   0.276  -0.042
    1UNL     H1   35   0.018  -0.056  -0.130
    1UNL     H2   36  -0.055  -0.209  -0.173
    1UNL     H3   37   0.074  -0.147  -0.278
    1UNL     H4   38   0.043  -0.432  -0.123
    1UNL     H5   39  -0.001  -0.370   0.021
    1UNL     H6   40   0.160  -0.430  -0.000
    1UNL     H7   41   0.337  -0.298  -0.074
    1UNL     H8   42   0.435  -0.139  -0.215
    1UNL     H9   43   0.285  -0.100  -0.275
    1UNL    H10   44   0.230   0.018  -0.061
    1UNL    H11   45   0.364   0.027   0.083
    1UNL    H12   46   0.515   0.241  -0.296
    1UNL    H13   47   0.551   0.212  -0.117
    1UNL    H14   48   0.550   0.089  -0.248
    1UNL    H15   49   0.293   0.293  -0.293
    1UNL    H16   50   0.074   0.153  -0.332
    1UNL    H17   51   0.086   0.105  -0.147
    1UNL    H18   52   0.002   0.391  -0.012
    1UNL    H19   53   0.108   0.360   0.192
    1UNL    H20   54   0.305   0.221   0.230
    1UNL    H21   55   0.189   0.177   0.358
    1UNL    H22   56   0.120   0.025   0.162
    1UNL    H23   57  -0.108   0.309   0.242
    1UNL    H24   58  -0.117   0.073   0.339
    1UNL    H25   59  -0.219   0.098   0.132
    1UNL    H26   60  -0.107  -0.181   0.032
    1UNL    H27   61  -0.267  -0.196  -0.201
    1UNL    H28   62  -0.413  -0.028  -0.278
    1UNL    H29   63  -0.517  -0.164  -0.229
    1UNL    H30   64  -0.577   0.056  -0.133
    1UNL    H31   65  -0.444  -0.329  -0.057
    1UNL    H32   66  -0.283  -0.465   0.002
    1UNL    H33   67  -0.391  -0.318   0.194
    1UNL    H34   68  -0.517  -0.093   0.080
    1UNL    H35   69  -0.196  -0.214   0.247
    1UNL    H36   70  -0.379  -0.076   0.302
    1UNL    H37   71  -0.111   0.119  -0.112
    1UNL    H38   72  -0.313   0.216  -0.050
   0.00000   0.00000   0.00000   0.00000   0.00000   0.00000   0.00000   0.00000   0.00000
Generated with MDTraj, t= 22.0
 72
    1UNL     C1    1   0.045  -0.189  -0.202
    1UNL     C2    2   0.156  -0.254  -0.130
    1UNL     C3    3   0.120  -0.377  -0.042
    1UNL     C4    4   0.285  -0.226  -0.155
    1UNL     C5    5   0.323  -0.102  -0.220
    1UNL     C6    6   0.318   0.008  -0.113
    1UNL     O1    7   0.413  -0.019  -0.004
    1UNL     C7    8   0.355   0.146  -0.178
    1UNL     C8    9   0.502   0.185  -0.163
    1UNL     C9   10   0.270   0.231  -0.229
    1UNL    C10   11   0.128   0.203  -0.248
    1UNL     O2   12   0.042   0.311  -0.193
    1UNL    C11   13   0.011   0.297  -0.052
    1UNL     O3   14   0.110   0.232   0.029
    1UNL    C12   15   0.091   0.247   0.169
    1UNL    C13   16   0.198   0.179   0.252
    1UNL     O4   17   0.197   0.046   0.222
    1UNL    C14   18  -0.055   0.202   0.215
    1UNL     O5   19  -0.039   0.115   0.321
    1UNL    C15   20  -0.124   0.132   0.097
    1UNL     O6   21  -0.070  -0.002   0.086
    1UNL    C16   22  -0.162  -0.101   0.065
    1UNL     O7   23  -0.258  -0.057  -0.044
    1UNL    C17   24  -0.327  -0.166  -0.101
    1UNL    C18   25  -0.437  -0.130  -0.197
    1UNL     O8   26  -0.530  -0.041  -0.125
    1UNL    C19   27  -0.371  -0.266   0.005
    1UNL     O9   28  -0.273  -0.376   0.005
    1UNL    C20   29  -0.384  -0.203   0.150
    1UNL    O10   30  -0.480  -0.104   0.141
    1UNL    C21   31  -0.249  -0.142   0.188
    1UNL    O11   32  -0.273  -0.041   0.291
    1UNL    C22   33  -0.121   0.216  -0.033
    1UNL    O12   34  -0.243   0.293  -0.040
    1UNL     H1   35   0.033  -0.083  -0.173
    1UNL     H2   36  -0.045  -0.243  -0.171
    1UNL     H3   37   0.060  -0.190  -0.316
    1UNL     H4   38   0.034  -0.427  -0.083
    1UNL     H5   39   0.081  -0.354   0.057
    1UNL     H6   40   0.210  -0.438  -0.045
    1UNL     H7   41   0.362  -0.299  -0.125
    1UNL     H8   42   0.420  -0.111  -0.260
    1UNL     H9   43   0.256  -0.083  -0.305
    1UNL    H10   44   0.213   0.017  -0.068
    1UNL    H11   45   0.370   0.014   0.085
    1UNL    H12   46   0.519   0.247  -0.251
    1UNL    H13   47   0.523   0.219  -0.061
    1UNL    H14   48   0.552   0.092  -0.186
    1UNL    H15   49   0.304   0.333  -0.262
    1UNL    H16   50   0.097   0.204  -0.353
    1UNL    H17   51   0.102   0.108  -0.193
    1UNL    H18   52   0.001   0.395  -0.004
    1UNL    H19   53   0.096   0.357   0.183
    1UNL    H20   54   0.298   0.227   0.244
    1UNL    H21   55   0.175   0.193   0.359
    1UNL    H22   56   0.109   0.021   0.184
    1UNL    H23   57  -0.123   0.294   0.236
    1UNL    H24   58  -0.112   0.060   0.314
    1UNL    H25   59  -0.229   0.115   0.112
    1UNL    H26   60  -0.104  -0.184   0.037
    1UNL    H27   61  -0.251  -0.221  -0.166
    1UNL    H28   62  -0.396  -0.075  -0.292
    1UNL    H29   63  -0.489  -0.213  -0.232
    1UNL    H30   64  -0.594   0.001  -0.179
    1UNL    H31   65  -0.468  -0.301  -0.028
    1UNL    H32   66  -0.312  -0.450   0.058
    1UNL    H33   67  -0.409  -0.280   0.222
    1UNL    H34   68  -0.484  -0.085   0.045
    1UNL    H35   69  -0.191  -0.210   0.247
    1UNL    H36   70  -0.369  -0.034   0.302
    1UNL    H37   71  -0.127   0.151  -0.123
    1UNL    H38   72  -0.325   0.244  -0.037
   0.00000   0.00000   0.00000   0.00000   0.00000   0.00000   0.00000   0.00000   0.00000
Generated with MDTraj, t= 23.0
 72
    1UNL     C1    1   0.079  -0.239  -0.259
    1UNL     C2    2   0.182  -0.287  -0.170
    1UNL     C3    3   0.156  -0.401  -0.082
    1UNL     C4    4   0.300  -0.224  -0.176
    1UNL     C5    5   0.333  -0.092  -0.229
    1UNL     C6    6   0.299   0.014  -0.119
    1UNL     O1    7   0.360  -0.035   0.001
    1UNL     C7    8   0.343   0.159  -0.148
    1UNL     C8    9   0.485   0.198  -0.110
    1UNL     C9   10   0.265   0.250  -0.204
    1UNL    C10   11   0.123   0.230  -0.249
    1UNL     O2   12   0.039   0.327  -0.189
    1UNL    C11   13   0.008   0.293  -0.057
    1UNL     O3   14   0.124   0.254   0.020
    1UNL    C12   15   0.105   0.261   0.168
    1UNL    C13   16   0.204   0.173   0.244
    1UNL     O4   17   0.187   0.036   0.212
    1UNL    C14   18  -0.035   0.213   0.218
    1UNL     O5   19  -0.034   0.128   0.338
    1UNL    C15   20  -0.109   0.130   0.104
    1UNL     O6   21  -0.066  -0.008   0.094
    1UNL    C16   22  -0.162  -0.103   0.068
    1UNL     O7   23  -0.252  -0.066  -0.045
    1UNL    C17   24  -0.331  -0.181  -0.091
    1UNL    C18   25  -0.436  -0.139  -0.185
    1UNL     O8   26  -0.538  -0.053  -0.137
    1UNL    C19   27  -0.396  -0.263   0.023
    1UNL     O9   28  -0.315  -0.381   0.041
    1UNL    C20   29  -0.394  -0.180   0.163
    1UNL    O10   30  -0.479  -0.074   0.139
    1UNL    C21   31  -0.252  -0.133   0.191
    1UNL    O11   32  -0.263  -0.020   0.284
    1UNL    C22   33  -0.114   0.195  -0.034
    1UNL    O12   34  -0.234   0.264  -0.058
    1UNL     H1   35   0.057  -0.130  -0.250
    1UNL     H2   36  -0.017  -0.298  -0.249
    1UNL     H3   37   0.110  -0.249  -0.367
    1UNL     H4   38   0.051  -0.400  -0.053
    1UNL     H5   39   0.205  -0.380   0.011
    1UNL     H6   40   0.202  -0.484  -0.137
    1UNL     H7   41   0.371  -0.256  -0.105
    1UNL     H8   42   0.435  -0.082  -0.254
    1UNL     H9   43   0.276  -0.063  -0.319
    1UNL    H10   44   0.189   0.033  -0.099
    1UNL    H11   45   0.311  -0.002   0.078
    1UNL    H12   46   0.527   0.201  -0.212
    1UNL    H13   47   0.496   0.289  -0.053
    1UNL    H14   48   0.529   0.113  -0.062
    1UNL    H15   49   0.290   0.348  -0.205
    1UNL    H16   50   0.124   0.248  -0.355
    1UNL    H17   51   0.077   0.131  -0.225
    1UNL    H18   52  -0.027   0.385  -0.013
    1UNL    H19   53   0.132   0.367   0.193
    1UNL    H20   54   0.305   0.204   0.221
    1UNL    H21   55   0.202   0.191   0.351
    1UNL    H22   56   0.094   0.019   0.183
    1UNL    H23   57  -0.087   0.312   0.256
    1UNL    H24   58  -0.108   0.055   0.335
    1UNL    H25   59  -0.207   0.121   0.147
    1UNL    H26   60  -0.105  -0.188   0.036
    1UNL    H27   61  -0.256  -0.244  -0.149
    1UNL    H28   62  -0.391  -0.082  -0.272
    1UNL    H29   63  -0.481  -0.226  -0.225
    1UNL    H30   64  -0.618  -0.049  -0.200
    1UNL    H31   65  -0.500  -0.283  -0.005
    1UNL    H32   66  -0.358  -0.439   0.102
    1UNL    H33   67  -0.437  -0.246   0.242
    1UNL    H34   68  -0.492  -0.054   0.043
    1UNL    H35   69  -0.205  -0.208   0.248
    1UNL    H36   70  -0.353   0.021   0.278
    1UNL    H37   71  -0.101   0.113  -0.110
    1UNL    H38   72  -0.304   0.195  -0.078
   0.00000   0.00000   0.00000   0.00000   0.00000   0.00000   0.00000   0.00000   0.00000
Generated with MDTraj, t= 24.0
 72
    1UNL     C1    1   0.081  -0.262  -0.296
    1UNL     C2    2   0.202  -0.306  -0.229
    1UNL     C3    3   0.203  -0.445  -0.182
    1UNL     C4    4   0.299  -0.221  -0.189
    1UNL     C5    5   0.316  -0.079  -0.224
    1UNL     C6    6   0.295   0.020  -0.101
    1UNL     O1    7   0.358  -0.039   0.018
    1UNL     C7    8   0.340   0.161  -0.136
    1UNL     C8    9   0.474   0.211  -0.089
    1UNL     C9   10   0.270   0.246  -0.207
    1UNL    C10   11   0.123   0.227  -0.250
    1UNL     O2   12   0.032   0.317  -0.189
    1UNL    C11   13   0.009   0.291  -0.051
    1UNL     O3   14   0.120   0.243   0.028
    1UNL    C12   15   0.093   0.263   0.167
    1UNL    C13   16   0.206   0.189   0.240
    1UNL     O4   17   0.200   0.049   0.221
    1UNL    C14   18  -0.053   0.229   0.214
    1UNL     O5   19  -0.053   0.166   0.342
    1UNL    C15   20  -0.113   0.125   0.099
    1UNL     O6   21  -0.068  -0.008   0.126
    1UNL    C16   22  -0.165  -0.097   0.090
    1UNL     O7   23  -0.247  -0.064  -0.018
    1UNL    C17   24  -0.321  -0.176  -0.074
    1UNL    C18   25  -0.410  -0.116  -0.188
    1UNL     O8   26  -0.509  -0.029  -0.139
    1UNL    C19   27  -0.396  -0.257   0.036
    1UNL     O9   28  -0.344  -0.390   0.062
    1UNL    C20   29  -0.407  -0.174   0.167
    1UNL    O10   30  -0.500  -0.057   0.162
    1UNL    C21   31  -0.262  -0.134   0.209
    1UNL    O11   32  -0.278  -0.017   0.292
    1UNL    C22   33  -0.094   0.173  -0.046
    1UNL    O12   34  -0.218   0.207  -0.104
    1UNL     H1   35   0.023  -0.191  -0.232
    1UNL     H2   36   0.019  -0.345  -0.345
    1UNL     H3   37   0.122  -0.193  -0.375
    1UNL     H4   38   0.127  -0.446  -0.105
    1UNL     H5   39   0.292  -0.478  -0.130
    1UNL     H6   40   0.183  -0.517  -0.260
    1UNL     H7   41   0.358  -0.262  -0.104
    1UNL     H8   42   0.411  -0.057  -0.264
    1UNL     H9   43   0.252  -0.045  -0.310
    1UNL    H10   44   0.185   0.024  -0.078
    1UNL    H11   45   0.310  -0.007   0.100
    1UNL    H12   46   0.541   0.175  -0.166
    1UNL    H13   47   0.494   0.316  -0.089
    1UNL    H14   48   0.517   0.181   0.004
    1UNL    H15   49   0.313   0.348  -0.233
    1UNL    H16   50   0.104   0.233  -0.354
    1UNL    H17   51   0.099   0.126  -0.214
    1UNL    H18   52  -0.030   0.384  -0.014
    1UNL    H19   53   0.113   0.373   0.182
    1UNL    H20   54   0.302   0.230   0.220
    1UNL    H21   55   0.197   0.210   0.343
    1UNL    H22   56   0.106   0.026   0.199
    1UNL    H23   57  -0.121   0.324   0.209
    1UNL    H24   58  -0.113   0.090   0.339
    1UNL    H25   59  -0.221   0.127   0.110
    1UNL    H26   60  -0.106  -0.179   0.045
    1UNL    H27   61  -0.239  -0.241  -0.113
    1UNL    H28   62  -0.350  -0.063  -0.263
    1UNL    H29   63  -0.459  -0.198  -0.239
    1UNL    H30   64  -0.582  -0.028  -0.211
    1UNL    H31   65  -0.500  -0.267  -0.002
    1UNL    H32   66  -0.394  -0.439   0.127
    1UNL    H33   67  -0.453  -0.240   0.247
    1UNL    H34   68  -0.514  -0.039   0.065
    1UNL    H35   69  -0.224  -0.209   0.272
    1UNL    H36   70  -0.352   0.039   0.261
    1UNL    H37   71  -0.048   0.096  -0.116
    1UNL    H38   72  -0.274   0.126  -0.095
   0.00000   0.00000   0.00000   0.00000   0.00000   0.00000   0.00000   0.00000   0.00000
Generated with MDTraj, t= 25.0
 72
    1UNL     C1    1   0.090  -0.247  -0.340
    1UNL     C2    2   0.217  -0.302  -0.276
    1UNL     C3    3   0.232  -0.450  -0.267
    1UNL     C4    4   0.308  -0.221  -0.216
    1UNL     C5    5   0.313  -0.078  -0.227
    1UNL     C6    6   0.293   0.008  -0.097
    1UNL     O1    7   0.357  -0.052   0.019
    1UNL     C7    8   0.352   0.151  -0.133
    1UNL     C8    9   0.490   0.194  -0.082
    1UNL     C9   10   0.275   0.231  -0.202
    1UNL    C10   11   0.132   0.204  -0.251
    1UNL     O2   12   0.038   0.293  -0.199
    1UNL    C11   13  -0.002   0.270  -0.063
    1UNL     O3   14   0.107   0.258   0.022
    1UNL    C12   15   0.070   0.278   0.163
    1UNL    C13   16   0.182   0.216   0.253
    1UNL     O4   17   0.187   0.077   0.235
    1UNL    C14   18  -0.075   0.236   0.205
    1UNL     O5   19  -0.089   0.195   0.340
    1UNL    C15   20  -0.131   0.118   0.113
    1UNL     O6   21  -0.079  -0.007   0.156
    1UNL    C16   22  -0.171  -0.104   0.120
    1UNL     O7   23  -0.234  -0.071  -0.003
    1UNL    C17   24  -0.315  -0.174  -0.060
    1UNL    C18   25  -0.402  -0.107  -0.168
    1UNL     O8   26  -0.442   0.020  -0.121
    1UNL    C19   27  -0.398  -0.255   0.048
    1UNL     O9   28  -0.336  -0.380   0.078
    1UNL    C20   29  -0.422  -0.169   0.170
    1UNL    O10   30  -0.492  -0.046   0.152
    1UNL    C21   31  -0.284  -0.131   0.231
    1UNL    O11   32  -0.301  -0.018   0.315
    1UNL    C22   33  -0.093   0.141  -0.034
    1UNL    O12   34  -0.201   0.156  -0.123
    1UNL     H1   35   0.053  -0.147  -0.300
    1UNL     H2   36   0.008  -0.326  -0.343
    1UNL     H3   37   0.106  -0.221  -0.448
    1UNL     H4   38   0.236  -0.474  -0.162
    1UNL     H5   39   0.313  -0.497  -0.325
    1UNL     H6   40   0.146  -0.509  -0.296
    1UNL     H7   41   0.388  -0.263  -0.164
    1UNL     H8   42   0.412  -0.057  -0.259
    1UNL     H9   43   0.254  -0.038  -0.312
    1UNL    H10   44   0.184   0.003  -0.084
    1UNL    H11   45   0.319  -0.015   0.100
    1UNL    H12   46   0.544   0.204  -0.176
    1UNL    H13   47   0.501   0.292  -0.042
    1UNL    H14   48   0.546   0.132  -0.014
    1UNL    H15   49   0.304   0.332  -0.220
    1UNL    H16   50   0.125   0.218  -0.356
    1UNL    H17   51   0.095   0.103  -0.230
    1UNL    H18   52  -0.059   0.359  -0.046
    1UNL    H19   53   0.072   0.389   0.184
    1UNL    H20   54   0.273   0.266   0.224
    1UNL    H21   55   0.167   0.240   0.356
    1UNL    H22   56   0.098   0.045   0.210
    1UNL    H23   57  -0.151   0.322   0.193
    1UNL    H24   58  -0.150   0.106   0.336
    1UNL    H25   59  -0.243   0.109   0.121
    1UNL    H26   60  -0.108  -0.195   0.093
    1UNL    H27   61  -0.242  -0.244  -0.100
    1UNL    H28   62  -0.339  -0.090  -0.252
    1UNL    H29   63  -0.487  -0.175  -0.193
    1UNL    H30   64  -0.512   0.055  -0.175
    1UNL    H31   65  -0.494  -0.288   0.000
    1UNL    H32   66  -0.382  -0.432   0.150
    1UNL    H33   67  -0.479  -0.227   0.251
    1UNL    H34   68  -0.486  -0.025   0.057
    1UNL    H35   69  -0.259  -0.208   0.301
    1UNL    H36   70  -0.371   0.045   0.284
    1UNL    H37   71  -0.041   0.047  -0.069
    1UNL    H38   72  -0.279   0.099  -0.090
   0.00000   0.00000   0.00000   0.00000   0.00000   0.00000   0.00000   0.00000   0.00000
Generated with MDTraj, t= 26.0
 72
    1UNL     C1    1   0.143  -0.206  -0.376
    1UNL     C2    2   0.235  -0.292  -0.300
    1UNL     C3    3   0.208  -0.441  -0.294
    1UNL     C4    4   0.346  -0.244  -0.241
    1UNL     C5    5   0.377  -0.102  -0.237
    1UNL     C6    6   0.310  -0.024  -0.122
    1UNL     O1    7   0.333  -0.079   0.007
    1UNL     C7    8   0.334   0.126  -0.131
    1UNL     C8    9   0.459   0.162  -0.052
    1UNL     C9   10   0.265   0.222  -0.187
    1UNL    C10   11   0.130   0.212  -0.248
    1UNL     O2   12   0.035   0.311  -0.193
    1UNL    C11   13  -0.001   0.283  -0.055
    1UNL     O3   14   0.109   0.282   0.032
    1UNL    C12   15   0.064   0.288   0.173
    1UNL    C13   16   0.163   0.211   0.260
    1UNL     O4   17   0.177   0.079   0.224
    1UNL    C14   18  -0.081   0.242   0.203
    1UNL     O5   19  -0.101   0.207   0.341
    1UNL    C15   20  -0.125   0.132   0.107
    1UNL     O6   21  -0.080   0.005   0.153
    1UNL    C16   22  -0.174  -0.095   0.122
    1UNL     O7   23  -0.232  -0.080  -0.012
    1UNL    C17   24  -0.315  -0.188  -0.054
    1UNL    C18   25  -0.411  -0.144  -0.161
    1UNL     O8   26  -0.453  -0.020  -0.125
    1UNL    C19   27  -0.402  -0.254   0.065
    1UNL     O9   28  -0.342  -0.370   0.102
    1UNL    C20   29  -0.412  -0.159   0.187
    1UNL    O10   30  -0.491  -0.050   0.157
    1UNL    C21   31  -0.276  -0.104   0.243
    1UNL    O11   32  -0.302   0.007   0.315
    1UNL    C22   33  -0.088   0.151  -0.037
    1UNL    O12   34  -0.202   0.159  -0.121
    1UNL     H1   35   0.157  -0.096  -0.350
    1UNL     H2   36   0.038  -0.239  -0.359
    1UNL     H3   37   0.153  -0.203  -0.488
    1UNL     H4   38   0.259  -0.496  -0.214
    1UNL     H5   39   0.216  -0.476  -0.398
    1UNL     H6   40   0.107  -0.469  -0.265
    1UNL     H7   41   0.412  -0.308  -0.176
    1UNL     H8   42   0.484  -0.087  -0.235
    1UNL     H9   43   0.336  -0.060  -0.330
    1UNL    H10   44   0.203  -0.024  -0.135
    1UNL    H11   45   0.278  -0.023   0.077
    1UNL    H12   46   0.512   0.228  -0.120
    1UNL    H13   47   0.442   0.220   0.036
    1UNL    H14   48   0.506   0.069  -0.021
    1UNL    H15   49   0.297   0.323  -0.178
    1UNL    H16   50   0.128   0.231  -0.353
    1UNL    H17   51   0.086   0.113  -0.240
    1UNL    H18   52  -0.061   0.369  -0.028
    1UNL    H19   53   0.069   0.394   0.206
    1UNL    H20   54   0.261   0.263   0.255
    1UNL    H21   55   0.123   0.218   0.362
    1UNL    H22   56   0.084   0.050   0.202
    1UNL    H23   57  -0.154   0.326   0.201
    1UNL    H24   58  -0.157   0.130   0.351
    1UNL    H25   59  -0.239   0.116   0.114
    1UNL    H26   60  -0.114  -0.194   0.124
    1UNL    H27   61  -0.249  -0.257  -0.099
    1UNL    H28   62  -0.358  -0.138  -0.250
    1UNL    H29   63  -0.497  -0.219  -0.166
    1UNL    H30   64  -0.514   0.025  -0.186
    1UNL    H31   65  -0.510  -0.274   0.033
    1UNL    H32   66  -0.403  -0.408   0.174
    1UNL    H33   67  -0.463  -0.215   0.274
    1UNL    H34   68  -0.473  -0.014   0.066
    1UNL    H35   69  -0.236  -0.177   0.315
    1UNL    H36   70  -0.397   0.032   0.305
    1UNL    H37   71  -0.032   0.061  -0.073
    1UNL    H38   72  -0.271   0.090  -0.109
   0.00000   0.00000   0.00000   0.00000   0.00000   0.00000   0.00000   0.00000   0.00000
Generated with MDTraj, t= 27.0
 72
    1UNL     C1    1   0.194  -0.180  -0.423
    1UNL     C2    2   0.246  -0.274  -0.319
    1UNL     C3    3   0.190  -0.413  -0.316
    1UNL     C4    4   0.349  -0.242  -0.238
    1UNL     C5    5   0.401  -0.105  -0.221
    1UNL     C6    6   0.299  -0.025  -0.135
    1UNL     O1    7   0.284  -0.098  -0.017
    1UNL     C7    8   0.343   0.113  -0.106
    1UNL     C8    9   0.468   0.136  -0.022
    1UNL     C9   10   0.264   0.207  -0.142
    1UNL    C10   11   0.139   0.199  -0.223
    1UNL     O2   12   0.042   0.302  -0.194
    1UNL    C11   13   0.000   0.295  -0.061
    1UNL     O3   14   0.110   0.285   0.030
    1UNL    C12   15   0.078   0.297   0.175
    1UNL    C13   16   0.173   0.204   0.245
    1UNL     O4   17   0.184   0.085   0.181
    1UNL    C14   18  -0.069   0.253   0.203
    1UNL     O5   19  -0.074   0.209   0.333
    1UNL    C15   20  -0.119   0.149   0.105
    1UNL     O6   21  -0.088   0.014   0.155
    1UNL    C16   22  -0.185  -0.087   0.127
    1UNL     O7   23  -0.256  -0.073  -0.001
    1UNL    C17   24  -0.309  -0.199  -0.040
    1UNL    C18   25  -0.403  -0.186  -0.170
    1UNL     O8   26  -0.508  -0.092  -0.135
    1UNL    C19   27  -0.391  -0.256   0.083
    1UNL     O9   28  -0.336  -0.372   0.133
    1UNL    C20   29  -0.414  -0.153   0.189
    1UNL    O10   30  -0.503  -0.047   0.153
    1UNL    C21   31  -0.282  -0.095   0.254
    1UNL    O11   32  -0.319   0.024   0.310
    1UNL    C22   33  -0.090   0.173  -0.042
    1UNL    O12   34  -0.209   0.194  -0.110
    1UNL     H1   35   0.231  -0.080  -0.387
    1UNL     H2   36   0.082  -0.195  -0.433
    1UNL     H3   37   0.237  -0.192  -0.528
    1UNL     H4   38   0.264  -0.486  -0.281
    1UNL     H5   39   0.145  -0.420  -0.417
    1UNL     H6   40   0.115  -0.426  -0.239
    1UNL     H7   41   0.387  -0.318  -0.177
    1UNL     H8   42   0.498  -0.103  -0.169
    1UNL     H9   43   0.405  -0.053  -0.316
    1UNL    H10   44   0.202  -0.015  -0.178
    1UNL    H11   45   0.245  -0.039   0.044
    1UNL    H12   46   0.524   0.213  -0.071
    1UNL    H13   47   0.444   0.173   0.076
    1UNL    H14   48   0.514   0.039  -0.012
    1UNL    H15   49   0.281   0.318  -0.116
    1UNL    H16   50   0.171   0.217  -0.326
    1UNL    H17   51   0.086   0.107  -0.221
    1UNL    H18   52  -0.044   0.393  -0.042
    1UNL    H19   53   0.097   0.402   0.194
    1UNL    H20   54   0.275   0.252   0.242
    1UNL    H21   55   0.132   0.193   0.350
    1UNL    H22   56   0.094   0.048   0.174
    1UNL    H23   57  -0.126   0.342   0.188
    1UNL    H24   58  -0.141   0.124   0.334
    1UNL    H25   59  -0.233   0.140   0.108
    1UNL    H26   60  -0.126  -0.186   0.139
    1UNL    H27   61  -0.229  -0.265  -0.057
    1UNL    H28   62  -0.346  -0.152  -0.246
    1UNL    H29   63  -0.444  -0.288  -0.200
    1UNL    H30   64  -0.557  -0.057  -0.219
    1UNL    H31   65  -0.489  -0.292   0.038
    1UNL    H32   66  -0.384  -0.408   0.212
    1UNL    H33   67  -0.469  -0.209   0.273
    1UNL    H34   68  -0.490  -0.039   0.057
    1UNL    H35   69  -0.229  -0.155   0.334
    1UNL    H36   70  -0.412   0.049   0.288
    1UNL    H37   71  -0.042   0.083  -0.087
    1UNL    H38   72  -0.271   0.118  -0.101
   0.00000   0.00000   0.00000   0.00000   0.00000   0.00000   0.00000   0.00000   0.00000
Generated with MDTraj, t= 28.0
 72
    1UNL     C1    1   0.234  -0.174  -0.468
    1UNL     C2    2   0.253  -0.276  -0.358
    1UNL     C3    3   0.191  -0.410  -0.382
    1UNL     C4    4   0.331  -0.250  -0.252
    1UNL     C5    5   0.403  -0.124  -0.223
    1UNL     C6    6   0.302  -0.043  -0.123
    1UNL     O1    7   0.294  -0.106   0.009
    1UNL     C7    8   0.338   0.107  -0.108
    1UNL     C8    9   0.459   0.124  -0.018
    1UNL     C9   10   0.264   0.208  -0.142
    1UNL    C10   11   0.143   0.208  -0.225
    1UNL     O2   12   0.056   0.311  -0.196
    1UNL    C11   13   0.011   0.299  -0.062
    1UNL     O3   14   0.121   0.300   0.033
    1UNL    C12   15   0.083   0.305   0.174
    1UNL    C13   16   0.174   0.214   0.256
    1UNL     O4   17   0.166   0.079   0.216
    1UNL    C14   18  -0.068   0.263   0.210
    1UNL     O5   19  -0.070   0.204   0.337
    1UNL    C15   20  -0.132   0.159   0.114
    1UNL     O6   21  -0.097   0.024   0.153
    1UNL    C16   22  -0.197  -0.072   0.126
    1UNL     O7   23  -0.269  -0.062   0.005
    1UNL    C17   24  -0.314  -0.199  -0.028
    1UNL    C18   25  -0.403  -0.189  -0.158
    1UNL     O8   26  -0.532  -0.147  -0.148
    1UNL    C19   27  -0.383  -0.268   0.099
    1UNL     O9   28  -0.306  -0.362   0.171
    1UNL    C20   29  -0.427  -0.159   0.196
    1UNL    O10   30  -0.506  -0.052   0.149
    1UNL    C21   31  -0.296  -0.083   0.247
    1UNL    O11   32  -0.330   0.047   0.295
    1UNL    C22   33  -0.090   0.179  -0.035
    1UNL    O12   34  -0.204   0.191  -0.116
    1UNL     H1   35   0.265  -0.073  -0.435
    1UNL     H2   36   0.126  -0.185  -0.505
    1UNL     H3   37   0.295  -0.192  -0.565
    1UNL     H4   38   0.259  -0.482  -0.426
    1UNL     H5   39   0.100  -0.391  -0.440
    1UNL     H6   40   0.171  -0.450  -0.282
    1UNL     H7   41   0.360  -0.336  -0.190
    1UNL     H8   42   0.504  -0.135  -0.173
    1UNL     H9   43   0.425  -0.073  -0.314
    1UNL    H10   44   0.202  -0.047  -0.159
    1UNL    H11   45   0.246  -0.048   0.083
    1UNL    H12   46   0.548   0.159  -0.064
    1UNL    H13   47   0.439   0.197   0.060
    1UNL    H14   48   0.483   0.031   0.034
    1UNL    H15   49   0.298   0.302  -0.125
    1UNL    H16   50   0.173   0.214  -0.332
    1UNL    H17   51   0.095   0.116  -0.200
    1UNL    H18   52  -0.046   0.393  -0.045
    1UNL    H19   53   0.108   0.405   0.208
    1UNL    H20   54   0.281   0.250   0.242
    1UNL    H21   55   0.141   0.225   0.365
    1UNL    H22   56   0.070   0.064   0.197
    1UNL    H23   57  -0.123   0.352   0.226
    1UNL    H24   58  -0.145   0.138   0.343
    1UNL    H25   59  -0.245   0.159   0.129
    1UNL    H26   60  -0.144  -0.175   0.138
    1UNL    H27   61  -0.228  -0.256  -0.047
    1UNL    H28   62  -0.352  -0.138  -0.229
    1UNL    H29   63  -0.412  -0.294  -0.192
    1UNL    H30   64  -0.552  -0.103  -0.236
    1UNL    H31   65  -0.476  -0.320   0.063
    1UNL    H32   66  -0.350  -0.378   0.254
    1UNL    H33   67  -0.491  -0.206   0.276
    1UNL    H34   68  -0.520  -0.052   0.050
    1UNL    H35   69  -0.241  -0.138   0.332
    1UNL    H36   70  -0.408   0.079   0.246
    1UNL    H37   71  -0.044   0.081  -0.064
    1UNL    H38   72  -0.271   0.118  -0.099
   0.00000   0.00000   0.00000   0.00000   0.00000   0.00000   0.00000   0.00000   0.00000
Generated with MDTraj, t= 29.0
 72
    1UNL     C1    1   0.252  -0.163  -0.489
    1UNL     C2    2   0.259  -0.260  -0.388
    1UNL     C3    3   0.221  -0.399  -0.436
    1UNL     C4    4   0.299  -0.247  -0.264
    1UNL     C5    5   0.354  -0.123  -0.208
    1UNL     C6    6   0.280  -0.038  -0.099
    1UNL     O1    7   0.294  -0.100   0.021
    1UNL     C7    8   0.335   0.097  -0.104
    1UNL     C8    9   0.468   0.116  -0.042
    1UNL     C9   10   0.282   0.193  -0.169
    1UNL    C10   11   0.149   0.208  -0.234
    1UNL     O2   12   0.068   0.311  -0.186
    1UNL    C11   13   0.014   0.291  -0.055
    1UNL     O3   14   0.119   0.283   0.048
    1UNL    C12   15   0.073   0.293   0.183
    1UNL    C13   16   0.167   0.208   0.279
    1UNL     O4   17   0.179   0.075   0.229
    1UNL    C14   18  -0.081   0.266   0.205
    1UNL     O5   19  -0.107   0.236   0.340
    1UNL    C15   20  -0.130   0.149   0.110
    1UNL     O6   21  -0.097   0.028   0.165
    1UNL    C16   22  -0.196  -0.068   0.132
    1UNL     O7   23  -0.252  -0.068  -0.000
    1UNL    C17   24  -0.306  -0.204  -0.019
    1UNL    C18   25  -0.402  -0.194  -0.142
    1UNL     O8   26  -0.515  -0.122  -0.119
    1UNL    C19   27  -0.383  -0.262   0.113
    1UNL     O9   28  -0.292  -0.352   0.180
    1UNL    C20   29  -0.430  -0.154   0.208
    1UNL    O10   30  -0.523  -0.069   0.159
    1UNL    C21   31  -0.306  -0.062   0.242
    1UNL    O11   32  -0.358   0.068   0.263
    1UNL    C22   33  -0.072   0.162  -0.037
    1UNL    O12   34  -0.176   0.148  -0.134
    1UNL     H1   35   0.165  -0.094  -0.480
    1UNL     H2   36   0.261  -0.212  -0.593
    1UNL     H3   37   0.335  -0.085  -0.487
    1UNL     H4   38   0.276  -0.449  -0.516
    1UNL     H5   39   0.119  -0.404  -0.476
    1UNL     H6   40   0.233  -0.464  -0.349
    1UNL     H7   41   0.294  -0.330  -0.197
    1UNL     H8   42   0.456  -0.150  -0.166
    1UNL     H9   43   0.389  -0.056  -0.284
    1UNL    H10   44   0.177  -0.043  -0.122
    1UNL    H11   45   0.271  -0.043   0.095
    1UNL    H12   46   0.553   0.127  -0.107
    1UNL    H13   47   0.468   0.209   0.015
    1UNL    H14   48   0.501   0.038   0.026
    1UNL    H15   49   0.347   0.286  -0.182
    1UNL    H16   50   0.173   0.224  -0.344
    1UNL    H17   51   0.095   0.117  -0.225
    1UNL    H18   52  -0.050   0.381  -0.038
    1UNL    H19   53   0.094   0.395   0.214
    1UNL    H20   54   0.266   0.262   0.288
    1UNL    H21   55   0.116   0.207   0.379
    1UNL    H22   56   0.087   0.043   0.212
    1UNL    H23   57  -0.138   0.351   0.184
    1UNL    H24   58  -0.191   0.180   0.338
    1UNL    H25   59  -0.240   0.159   0.095
    1UNL    H26   60  -0.144  -0.169   0.137
    1UNL    H27   61  -0.226  -0.272  -0.039
    1UNL    H28   62  -0.350  -0.149  -0.216
    1UNL    H29   63  -0.435  -0.293  -0.170
    1UNL    H30   64  -0.580  -0.141  -0.185
    1UNL    H31   65  -0.468  -0.323   0.077
    1UNL    H32   66  -0.326  -0.385   0.263
    1UNL    H33   67  -0.472  -0.207   0.296
    1UNL    H34   68  -0.519  -0.078   0.062
    1UNL    H35   69  -0.253  -0.099   0.339
    1UNL    H36   70  -0.450   0.066   0.226
    1UNL    H37   71  -0.014   0.067  -0.057
    1UNL    H38   72  -0.235   0.075  -0.110
   0.00000   0.00000   0.00000   0.00000   0.00000   0.00000   0.00000   0.00000   0.00000
Generated with MDTraj, t= 30.0
 72
    1UNL     C1    1   0.282  -0.155  -0.519
    1UNL     C2    2   0.260  -0.261  -0.407
    1UNL     C3    3   0.194  -0.386  -0.438
    1UNL     C4    4   0.289  -0.228  -0.280
    1UNL     C5    5   0.362  -0.111  -0.223
    1UNL     C6    6   0.288  -0.039  -0.110
    1UNL     O1    7   0.270  -0.112   0.010
    1UNL     C7    8   0.345   0.107  -0.096
    1UNL     C8    9   0.470   0.123  -0.017
    1UNL     C9   10   0.295   0.210  -0.157
    1UNL    C10   11   0.168   0.212  -0.232
    1UNL     O2   12   0.073   0.305  -0.192
    1UNL    C11   13   0.020   0.278  -0.063
    1UNL     O3   14   0.120   0.304   0.041
    1UNL    C12   15   0.068   0.296   0.179
    1UNL    C13   16   0.165   0.208   0.267
    1UNL     O4   17   0.170   0.071   0.239
    1UNL    C14   18  -0.082   0.267   0.191
    1UNL     O5   19  -0.121   0.249   0.326
    1UNL    C15   20  -0.123   0.142   0.099
    1UNL     O6   21  -0.101   0.029   0.175
    1UNL    C16   22  -0.203  -0.071   0.154
    1UNL     O7   23  -0.262  -0.085   0.017
    1UNL    C17   24  -0.315  -0.215  -0.008
    1UNL    C18   25  -0.415  -0.208  -0.128
    1UNL     O8   26  -0.473  -0.078  -0.111
    1UNL    C19   27  -0.388  -0.265   0.123
    1UNL     O9   28  -0.293  -0.357   0.190
    1UNL    C20   29  -0.436  -0.159   0.223
    1UNL    O10   30  -0.551  -0.091   0.171
    1UNL    C21   31  -0.317  -0.057   0.255
    1UNL    O11   32  -0.383   0.066   0.252
    1UNL    C22   33  -0.046   0.142  -0.042
    1UNL    O12   34  -0.133   0.109  -0.145
    1UNL     H1   35   0.183  -0.113  -0.557
    1UNL     H2   36   0.343  -0.209  -0.601
    1UNL     H3   37   0.334  -0.064  -0.482
    1UNL     H4   38   0.202  -0.427  -0.540
    1UNL     H5   39   0.085  -0.372  -0.443
    1UNL     H6   40   0.226  -0.464  -0.367
    1UNL     H7   41   0.260  -0.292  -0.199
    1UNL     H8   42   0.455  -0.159  -0.179
    1UNL     H9   43   0.398  -0.044  -0.301
    1UNL    H10   44   0.186  -0.037  -0.140
    1UNL    H11   45   0.225  -0.053   0.076
    1UNL    H12   46   0.556   0.137  -0.083
    1UNL    H13   47   0.451   0.214   0.041
    1UNL    H14   48   0.487   0.034   0.043
    1UNL    H15   49   0.333   0.311  -0.150
    1UNL    H16   50   0.186   0.253  -0.337
    1UNL    H17   51   0.127   0.116  -0.250
    1UNL    H18   52  -0.058   0.358  -0.047
    1UNL    H19   53   0.081   0.401   0.214
    1UNL    H20   54   0.266   0.246   0.246
    1UNL    H21   55   0.140   0.225   0.372
    1UNL    H22   56   0.073   0.049   0.223
    1UNL    H23   57  -0.143   0.345   0.154
    1UNL    H24   58  -0.206   0.194   0.316
    1UNL    H25   59  -0.229   0.159   0.083
    1UNL    H26   60  -0.151  -0.167   0.155
    1UNL    H27   61  -0.229  -0.283  -0.021
    1UNL    H28   62  -0.367  -0.209  -0.219
    1UNL    H29   63  -0.490  -0.284  -0.122
    1UNL    H30   64  -0.407  -0.008  -0.080
    1UNL    H31   65  -0.477  -0.316   0.087
    1UNL    H32   66  -0.341  -0.395   0.268
    1UNL    H33   67  -0.475  -0.205   0.313
    1UNL    H34   68  -0.536  -0.090   0.072
    1UNL    H35   69  -0.273  -0.053   0.365
    1UNL    H36   70  -0.461   0.055   0.195
    1UNL    H37   71   0.032   0.062  -0.031
    1UNL    H38   72  -0.201   0.050  -0.103
   0.00000   0.00000   0.00000   0.00000   0.00000   0.00000   0.00000   0.00000   0.00000
Generated with MDTraj, t= 31.0
 72
    1UNL     C1    1   0.314  -0.175  -0.531
    1UNL     C2    2   0.264  -0.250  -0.405
    1UNL     C3    3   0.151  -0.350  -0.419
    1UNL     C4    4   0.299  -0.226  -0.278
    1UNL     C5    5   0.379  -0.106  -0.231
    1UNL     C6    6   0.297  -0.042  -0.121
    1UNL     O1    7   0.285  -0.125  -0.009
    1UNL     C7    8   0.333   0.104  -0.086
    1UNL     C8    9   0.447   0.123   0.026
    1UNL     C9   10   0.280   0.214  -0.134
    1UNL    C10   11   0.167   0.221  -0.237
    1UNL     O2   12   0.064   0.306  -0.188
    1UNL    C11   13   0.013   0.280  -0.058
    1UNL     O3   14   0.099   0.341   0.041
    1UNL    C12   15   0.053   0.309   0.174
    1UNL    C13   16   0.151   0.210   0.243
    1UNL     O4   17   0.162   0.088   0.185
    1UNL    C14   18  -0.089   0.255   0.180
    1UNL     O5   19  -0.116   0.225   0.318
    1UNL    C15   20  -0.113   0.124   0.092
    1UNL     O6   21  -0.097   0.005   0.169
    1UNL    C16   22  -0.200  -0.088   0.154
    1UNL     O7   23  -0.247  -0.102   0.020
    1UNL    C17   24  -0.329  -0.217   0.000
    1UNL    C18   25  -0.434  -0.193  -0.103
    1UNL     O8   26  -0.477  -0.054  -0.096
    1UNL    C19   27  -0.403  -0.272   0.124
    1UNL     O9   28  -0.300  -0.343   0.199
    1UNL    C20   29  -0.448  -0.158   0.227
    1UNL    O10   30  -0.549  -0.077   0.180
    1UNL    C21   31  -0.324  -0.061   0.248
    1UNL    O11   32  -0.363   0.072   0.244
    1UNL    C22   33  -0.020   0.133  -0.033
    1UNL    O12   34  -0.067   0.066  -0.152
    1UNL     H1   35   0.232  -0.106  -0.582
    1UNL     H2   36   0.370  -0.241  -0.605
    1UNL     H3   37   0.384  -0.098  -0.492
    1UNL     H4   38   0.109  -0.338  -0.520
    1UNL     H5   39   0.062  -0.324  -0.359
    1UNL     H6   40   0.191  -0.452  -0.399
    1UNL     H7   41   0.255  -0.281  -0.193
    1UNL     H8   42   0.475  -0.146  -0.190
    1UNL     H9   43   0.400  -0.031  -0.310
    1UNL    H10   44   0.192  -0.035  -0.139
    1UNL    H11   45   0.240  -0.066   0.062
    1UNL    H12   46   0.528   0.190  -0.009
    1UNL    H13   47   0.394   0.171   0.108
    1UNL    H14   48   0.494   0.029   0.056
    1UNL    H15   49   0.310   0.310  -0.104
    1UNL    H16   50   0.207   0.256  -0.338
    1UNL    H17   51   0.122   0.128  -0.264
    1UNL    H18   52  -0.084   0.337  -0.051
    1UNL    H19   53   0.055   0.410   0.222
    1UNL    H20   54   0.247   0.255   0.261
    1UNL    H21   55   0.108   0.190   0.338
    1UNL    H22   56   0.075   0.044   0.187
    1UNL    H23   57  -0.164   0.328   0.151
    1UNL    H24   58  -0.194   0.172   0.317
    1UNL    H25   59  -0.214   0.137   0.062
    1UNL    H26   60  -0.168  -0.184   0.185
    1UNL    H27   61  -0.251  -0.296  -0.025
    1UNL    H28   62  -0.397  -0.212  -0.198
    1UNL    H29   63  -0.517  -0.260  -0.090
    1UNL    H30   64  -0.403   0.004  -0.119
    1UNL    H31   65  -0.478  -0.340   0.090
    1UNL    H32   66  -0.333  -0.383   0.287
    1UNL    H33   67  -0.481  -0.213   0.312
    1UNL    H34   68  -0.532  -0.048   0.089
    1UNL    H35   69  -0.301  -0.075   0.365
    1UNL    H36   70  -0.461   0.077   0.233
    1UNL    H37   71   0.073   0.082   0.005
    1UNL    H38   72  -0.119  -0.009  -0.114
   0.00000   0.00000   0.00000   0.00000   0.00000   0.00000   0.00000   0.00000   0.00000
Generated with MDTraj, t= 32.0
 72
    1UNL     C1    1   0.323  -0.166  -0.506
    1UNL     C2    2   0.257  -0.246  -0.401
    1UNL     C3    3   0.168  -0.362  -0.440
    1UNL     C4    4   0.270  -0.214  -0.272
    1UNL     C5    5   0.349  -0.096  -0.223
    1UNL     C6    6   0.287  -0.033  -0.100
    1UNL     O1    7   0.296  -0.116   0.011
    1UNL     C7    8   0.347   0.106  -0.078
    1UNL     C8    9   0.459   0.119   0.005
    1UNL     C9   10   0.289   0.214  -0.124
    1UNL    C10   11   0.166   0.216  -0.225
    1UNL     O2   12   0.048   0.293  -0.202
    1UNL    C11   13   0.002   0.277  -0.071
    1UNL     O3   14   0.081   0.346   0.027
    1UNL    C12   15   0.057   0.311   0.169
    1UNL    C13   16   0.166   0.235   0.241
    1UNL     O4   17   0.172   0.104   0.201
    1UNL    C14   18  -0.078   0.243   0.186
    1UNL     O5   19  -0.090   0.209   0.324
    1UNL    C15   20  -0.108   0.115   0.096
    1UNL     O6   21  -0.090  -0.009   0.164
    1UNL    C16   22  -0.196  -0.094   0.142
    1UNL     O7   23  -0.252  -0.098   0.011
    1UNL    C17   24  -0.341  -0.212  -0.006
    1UNL    C18   25  -0.454  -0.184  -0.104
    1UNL     O8   26  -0.498  -0.052  -0.096
    1UNL    C19   27  -0.397  -0.266   0.131
    1UNL     O9   28  -0.317  -0.370   0.187
    1UNL    C20   29  -0.438  -0.147   0.228
    1UNL    O10   30  -0.553  -0.071   0.192
    1UNL    C21   31  -0.321  -0.058   0.240
    1UNL    O11   32  -0.349   0.076   0.217
    1UNL    C22   33  -0.021   0.129  -0.032
    1UNL    O12   34  -0.056   0.044  -0.142
    1UNL     H1   35   0.302  -0.052  -0.496
    1UNL     H2   36   0.300  -0.199  -0.612
    1UNL     H3   37   0.435  -0.174  -0.496
    1UNL     H4   38   0.120  -0.339  -0.536
    1UNL     H5   39   0.090  -0.374  -0.364
    1UNL     H6   40   0.243  -0.445  -0.437
    1UNL     H7   41   0.215  -0.256  -0.194
    1UNL     H8   42   0.453  -0.130  -0.201
    1UNL     H9   43   0.363  -0.019  -0.303
    1UNL    H10   44   0.179  -0.023  -0.106
    1UNL    H11   45   0.268  -0.060   0.084
    1UNL    H12   46   0.469   0.223   0.044
    1UNL    H13   47   0.446   0.064   0.099
    1UNL    H14   48   0.556   0.100  -0.044
    1UNL    H15   49   0.309   0.321  -0.087
    1UNL    H16   50   0.208   0.249  -0.325
    1UNL    H17   51   0.148   0.113  -0.243
    1UNL    H18   52  -0.099   0.326  -0.062
    1UNL    H19   53   0.040   0.411   0.214
    1UNL    H20   54   0.266   0.270   0.224
    1UNL    H21   55   0.151   0.240   0.346
    1UNL    H22   56   0.078   0.070   0.198
    1UNL    H23   57  -0.163   0.315   0.168
    1UNL    H24   58  -0.165   0.157   0.336
    1UNL    H25   59  -0.203   0.130   0.051
    1UNL    H26   60  -0.159  -0.189   0.169
    1UNL    H27   61  -0.274  -0.294  -0.047
    1UNL    H28   62  -0.435  -0.204  -0.205
    1UNL    H29   63  -0.540  -0.243  -0.087
    1UNL    H30   64  -0.446   0.003  -0.157
    1UNL    H31   65  -0.493  -0.301   0.103
    1UNL    H32   66  -0.366  -0.408   0.266
    1UNL    H33   67  -0.457  -0.184   0.326
    1UNL    H34   68  -0.562  -0.066   0.092
    1UNL    H35   69  -0.265  -0.050   0.346
    1UNL    H36   70  -0.444   0.086   0.192
    1UNL    H37   71   0.082   0.092  -0.007
    1UNL    H38   72  -0.108  -0.031  -0.101
   0.00000   0.00000   0.00000   0.00000   0.00000   0.00000   0.00000   0.00000   0.00000
Generated with MDTraj, t= 33.0
 72
    1UNL     C1    1   0.325  -0.161  -0.501
    1UNL     C2    2   0.257  -0.246  -0.396
    1UNL     C3    3   0.191  -0.371  -0.445
    1UNL     C4    4   0.267  -0.217  -0.267
    1UNL     C5    5   0.350  -0.108  -0.210
    1UNL     C6    6   0.282  -0.029  -0.092
    1UNL     O1    7   0.298  -0.086   0.037
    1UNL     C7    8   0.339   0.115  -0.096
    1UNL     C8    9   0.453   0.143   0.000
    1UNL     C9   10   0.293   0.202  -0.180
    1UNL    C10   11   0.145   0.198  -0.243
    1UNL     O2   12   0.051   0.295  -0.204
    1UNL    C11   13   0.011   0.278  -0.074
    1UNL     O3   14   0.103   0.319   0.026
    1UNL    C12   15   0.068   0.308   0.169
    1UNL    C13   16   0.175   0.238   0.258
    1UNL     O4   17   0.192   0.103   0.227
    1UNL    C14   18  -0.072   0.240   0.191
    1UNL     O5   19  -0.084   0.184   0.324
    1UNL    C15   20  -0.110   0.128   0.090
    1UNL     O6   21  -0.095  -0.004   0.157
    1UNL    C16   22  -0.199  -0.085   0.133
    1UNL     O7   23  -0.258  -0.088   0.007
    1UNL    C17   24  -0.339  -0.211  -0.013
    1UNL    C18   25  -0.445  -0.170  -0.117
    1UNL     O8   26  -0.501  -0.053  -0.078
    1UNL    C19   27  -0.407  -0.268   0.120
    1UNL     O9   28  -0.327  -0.362   0.184
    1UNL    C20   29  -0.445  -0.154   0.221
    1UNL    O10   30  -0.564  -0.077   0.193
    1UNL    C21   31  -0.322  -0.067   0.243
    1UNL    O11   32  -0.361   0.070   0.250
    1UNL    C22   33  -0.024   0.133  -0.038
    1UNL    O12   34  -0.075   0.055  -0.152
    1UNL     H1   35   0.279  -0.059  -0.508
    1UNL     H2   36   0.312  -0.217  -0.600
    1UNL     H3   37   0.440  -0.154  -0.482
    1UNL     H4   38   0.137  -0.368  -0.542
    1UNL     H5   39   0.119  -0.408  -0.369
    1UNL     H6   40   0.275  -0.444  -0.438
    1UNL     H7   41   0.216  -0.274  -0.185
    1UNL     H8   42   0.451  -0.145  -0.186
    1UNL     H9   43   0.379  -0.033  -0.290
    1UNL    H10   44   0.175  -0.031  -0.109
    1UNL    H11   45   0.267  -0.018   0.111
    1UNL    H12   46   0.423   0.169   0.105
    1UNL    H13   47   0.508   0.051   0.023
    1UNL    H14   48   0.524   0.220  -0.034
    1UNL    H15   49   0.335   0.295  -0.183
    1UNL    H16   50   0.165   0.207  -0.352
    1UNL    H17   51   0.104   0.099  -0.240
    1UNL    H18   52  -0.084   0.336  -0.062
    1UNL    H19   53   0.063   0.414   0.198
    1UNL    H20   54   0.270   0.289   0.248
    1UNL    H21   55   0.160   0.241   0.364
    1UNL    H22   56   0.102   0.061   0.221
    1UNL    H23   57  -0.157   0.317   0.195
    1UNL    H24   58  -0.173   0.143   0.335
    1UNL    H25   59  -0.211   0.129   0.055
    1UNL    H26   60  -0.155  -0.182   0.152
    1UNL    H27   61  -0.268  -0.290  -0.052
    1UNL    H28   62  -0.413  -0.165  -0.218
    1UNL    H29   63  -0.527  -0.233  -0.120
    1UNL    H30   64  -0.429   0.019  -0.088
    1UNL    H31   65  -0.494  -0.322   0.090
    1UNL    H32   66  -0.377  -0.407   0.254
    1UNL    H33   67  -0.466  -0.207   0.315
    1UNL    H34   68  -0.557  -0.064   0.098
    1UNL    H35   69  -0.274  -0.096   0.347
    1UNL    H36   70  -0.457   0.063   0.237
    1UNL    H37   71   0.070   0.079  -0.014
    1UNL    H38   72  -0.128  -0.021  -0.123
   0.00000   0.00000   0.00000   0.00000   0.00000   0.00000   0.00000   0.00000   0.00000
Generated with MDTraj, t= 34.0
 72
    1UNL     C1    1   0.322  -0.178  -0.500
    1UNL     C2    2   0.285  -0.255  -0.380
    1UNL     C3    3   0.179  -0.364  -0.407
    1UNL     C4    4   0.330  -0.235  -0.256
    1UNL     C5    5   0.398  -0.108  -0.210
    1UNL     C6    6   0.301  -0.025  -0.117
    1UNL     O1    7   0.285  -0.084   0.012
    1UNL     C7    8   0.346   0.121  -0.111
    1UNL     C8    9   0.469   0.138  -0.015
    1UNL     C9   10   0.282   0.217  -0.173
    1UNL    C10   11   0.143   0.209  -0.250
    1UNL     O2   12   0.044   0.293  -0.196
    1UNL    C11   13   0.000   0.268  -0.062
    1UNL     O3   14   0.109   0.294   0.032
    1UNL    C12   15   0.069   0.296   0.168
    1UNL    C13   16   0.161   0.207   0.253
    1UNL     O4   17   0.164   0.071   0.214
    1UNL    C14   18  -0.082   0.260   0.184
    1UNL     O5   19  -0.112   0.238   0.323
    1UNL    C15   20  -0.124   0.131   0.097
    1UNL     O6   21  -0.095   0.001   0.165
    1UNL    C16   22  -0.191  -0.091   0.138
    1UNL     O7   23  -0.269  -0.079   0.017
    1UNL    C17   24  -0.349  -0.195  -0.015
    1UNL    C18   25  -0.457  -0.160  -0.120
    1UNL     O8   26  -0.506  -0.030  -0.102
    1UNL    C19   27  -0.409  -0.266   0.111
    1UNL     O9   28  -0.318  -0.357   0.162
    1UNL    C20   29  -0.431  -0.167   0.227
    1UNL    O10   30  -0.533  -0.075   0.193
    1UNL    C21   31  -0.299  -0.083   0.258
    1UNL    O11   32  -0.342   0.056   0.281
    1UNL    C22   33  -0.046   0.127  -0.037
    1UNL    O12   34  -0.126   0.074  -0.148
    1UNL     H1   35   0.292  -0.072  -0.486
    1UNL     H2   36   0.280  -0.223  -0.597
    1UNL     H3   37   0.438  -0.189  -0.506
    1UNL     H4   38   0.108  -0.352  -0.492
    1UNL     H5   39   0.104  -0.386  -0.327
    1UNL     H6   40   0.224  -0.464  -0.412
    1UNL     H7   41   0.301  -0.300  -0.180
    1UNL     H8   42   0.498  -0.123  -0.164
    1UNL     H9   43   0.436  -0.049  -0.301
    1UNL    H10   44   0.203  -0.027  -0.164
    1UNL    H11   45   0.230  -0.032   0.068
    1UNL    H12   46   0.458   0.075   0.078
    1UNL    H13   47   0.549   0.075  -0.060
    1UNL    H14   48   0.497   0.245  -0.006
    1UNL    H15   49   0.322   0.322  -0.164
    1UNL    H16   50   0.146   0.214  -0.360
    1UNL    H17   51   0.113   0.108  -0.238
    1UNL    H18   52  -0.079   0.342  -0.039
    1UNL    H19   53   0.094   0.400   0.190
    1UNL    H20   54   0.268   0.233   0.262
    1UNL    H21   55   0.128   0.217   0.358
    1UNL    H22   56   0.073   0.036   0.205
    1UNL    H23   57  -0.149   0.348   0.151
    1UNL    H24   58  -0.202   0.190   0.324
    1UNL    H25   59  -0.229   0.114   0.076
    1UNL    H26   60  -0.138  -0.187   0.133
    1UNL    H27   61  -0.282  -0.274  -0.054
    1UNL    H28   62  -0.415  -0.178  -0.219
    1UNL    H29   63  -0.533  -0.226  -0.111
    1UNL    H30   64  -0.434   0.026  -0.125
    1UNL    H31   65  -0.499  -0.323   0.085
    1UNL    H32   66  -0.358  -0.400   0.236
    1UNL    H33   67  -0.468  -0.215   0.319
    1UNL    H34   68  -0.507  -0.039   0.102
    1UNL    H35   69  -0.250  -0.109   0.361
    1UNL    H36   70  -0.434   0.044   0.311
    1UNL    H37   71   0.045   0.066  -0.025
    1UNL    H38   72  -0.168  -0.010  -0.119
   0.00000   0.00000   0.00000   0.00000   0.00000   0.00000   0.00000   0.00000   0.00000
Generated with MDTraj, t= 35.0
 72
    1UNL     C1    1   0.286  -0.182  -0.483
    1UNL     C2    2   0.296  -0.281  -0.369
    1UNL     C3    3   0.218  -0.400  -0.386
    1UNL     C4    4   0.364  -0.248  -0.258
    1UNL     C5    5   0.421  -0.113  -0.220
    1UNL     C6    6   0.324  -0.034  -0.133
    1UNL     O1    7   0.315  -0.101  -0.009
    1UNL     C7    8   0.361   0.115  -0.114
    1UNL     C8    9   0.483   0.145  -0.042
    1UNL     C9   10   0.289   0.216  -0.150
    1UNL    C10   11   0.154   0.205  -0.223
    1UNL     O2   12   0.056   0.297  -0.196
    1UNL    C11   13   0.004   0.286  -0.068
    1UNL     O3   14   0.112   0.310   0.030
    1UNL    C12   15   0.060   0.296   0.166
    1UNL    C13   16   0.148   0.196   0.243
    1UNL     O4   17   0.150   0.070   0.173
    1UNL    C14   18  -0.087   0.258   0.185
    1UNL     O5   19  -0.109   0.226   0.318
    1UNL    C15   20  -0.136   0.146   0.094
    1UNL     O6   21  -0.115   0.019   0.167
    1UNL    C16   22  -0.206  -0.085   0.149
    1UNL     O7   23  -0.277  -0.069   0.022
    1UNL    C17   24  -0.347  -0.189  -0.018
    1UNL    C18   25  -0.453  -0.153  -0.122
    1UNL     O8   26  -0.509  -0.024  -0.090
    1UNL    C19   27  -0.405  -0.264   0.110
    1UNL     O9   28  -0.319  -0.369   0.157
    1UNL    C20   29  -0.438  -0.168   0.229
    1UNL    O10   30  -0.537  -0.080   0.186
    1UNL    C21   31  -0.308  -0.097   0.272
    1UNL    O11   32  -0.353   0.022   0.324
    1UNL    C22   33  -0.067   0.154  -0.047
    1UNL    O12   34  -0.165   0.129  -0.152
    1UNL     H1   35   0.262  -0.075  -0.455
    1UNL     H2   36   0.218  -0.210  -0.572
    1UNL     H3   37   0.386  -0.183  -0.538
    1UNL     H4   38   0.161  -0.399  -0.482
    1UNL     H5   39   0.138  -0.404  -0.309
    1UNL     H6   40   0.281  -0.488  -0.368
    1UNL     H7   41   0.371  -0.310  -0.166
    1UNL     H8   42   0.517  -0.127  -0.167
    1UNL     H9   43   0.450  -0.053  -0.311
    1UNL    H10   44   0.226  -0.030  -0.186
    1UNL    H11   45   0.261  -0.040   0.058
    1UNL    H12   46   0.534   0.049  -0.017
    1UNL    H13   47   0.553   0.179  -0.125
    1UNL    H14   48   0.466   0.227   0.032
    1UNL    H15   49   0.305   0.319  -0.118
    1UNL    H16   50   0.176   0.223  -0.329
    1UNL    H17   51   0.114   0.105  -0.232
    1UNL    H18   52  -0.065   0.370  -0.059
    1UNL    H19   53   0.093   0.397   0.198
    1UNL    H20   54   0.255   0.226   0.258
    1UNL    H21   55   0.123   0.176   0.351
    1UNL    H22   56   0.055   0.044   0.167
    1UNL    H23   57  -0.153   0.346   0.155
    1UNL    H24   58  -0.182   0.168   0.330
    1UNL    H25   59  -0.248   0.143   0.084
    1UNL    H26   60  -0.144  -0.180   0.142
    1UNL    H27   61  -0.278  -0.256  -0.068
    1UNL    H28   62  -0.401  -0.153  -0.221
    1UNL    H29   63  -0.516  -0.233  -0.125
    1UNL    H30   64  -0.439   0.042  -0.054
    1UNL    H31   65  -0.500  -0.312   0.079
    1UNL    H32   66  -0.360  -0.414   0.233
    1UNL    H33   67  -0.487  -0.228   0.313
    1UNL    H34   68  -0.528  -0.055   0.093
    1UNL    H35   69  -0.255  -0.145   0.361
    1UNL    H36   70  -0.436   0.046   0.277
    1UNL    H37   71   0.012   0.076  -0.052
    1UNL    H38   72  -0.227   0.059  -0.116
   0.00000   0.00000   0.00000   0.00000   0.00000   0.00000   0.00000   0.00000   0.00000
Generated with MDTraj, t= 36.0
 72
    1UNL     C1    1   0.228  -0.194  -0.440
    1UNL     C2    2   0.308  -0.287  -0.360
    1UNL     C3    3   0.293  -0.441  -0.386
    1UNL     C4    4   0.385  -0.249  -0.258
    1UNL     C5    5   0.424  -0.107  -0.234
    1UNL     C6    6   0.332  -0.038  -0.136
    1UNL     O1    7   0.339  -0.109  -0.012
    1UNL     C7    8   0.355   0.113  -0.117
    1UNL     C8    9   0.486   0.157  -0.058
    1UNL     C9   10   0.277   0.210  -0.155
    1UNL    C10   11   0.140   0.182  -0.216
    1UNL     O2   12   0.052   0.290  -0.194
    1UNL    C11   13   0.004   0.294  -0.060
    1UNL     O3   14   0.104   0.331   0.042
    1UNL    C12   15   0.069   0.298   0.176
    1UNL    C13   16   0.167   0.195   0.238
    1UNL     O4   17   0.164   0.078   0.171
    1UNL    C14   18  -0.078   0.261   0.203
    1UNL     O5   19  -0.094   0.222   0.340
    1UNL    C15   20  -0.129   0.149   0.114
    1UNL     O6   21  -0.107   0.020   0.153
    1UNL    C16   22  -0.219  -0.066   0.130
    1UNL     O7   23  -0.300  -0.056   0.010
    1UNL    C17   24  -0.364  -0.183  -0.032
    1UNL    C18   25  -0.475  -0.157  -0.134
    1UNL     O8   26  -0.554  -0.047  -0.099
    1UNL    C19   27  -0.411  -0.262   0.096
    1UNL     O9   28  -0.321  -0.372   0.128
    1UNL    C20   29  -0.438  -0.169   0.222
    1UNL    O10   30  -0.536  -0.076   0.212
    1UNL    C21   31  -0.310  -0.084   0.252
    1UNL    O11   32  -0.346   0.034   0.309
    1UNL    C22   33  -0.068   0.164  -0.028
    1UNL    O12   34  -0.167   0.140  -0.134
    1UNL     H1   35   0.151  -0.146  -0.365
    1UNL     H2   36   0.185  -0.241  -0.536
    1UNL     H3   37   0.301  -0.116  -0.473
    1UNL     H4   38   0.292  -0.450  -0.497
    1UNL     H5   39   0.192  -0.469  -0.351
    1UNL     H6   40   0.367  -0.500  -0.330
    1UNL     H7   41   0.439  -0.324  -0.206
    1UNL     H8   42   0.527  -0.107  -0.193
    1UNL     H9   43   0.426  -0.056  -0.334
    1UNL    H10   44   0.224  -0.049  -0.166
    1UNL    H11   45   0.287  -0.059   0.048
    1UNL    H12   46   0.571   0.119  -0.119
    1UNL    H13   47   0.508   0.267  -0.075
    1UNL    H14   48   0.504   0.145   0.051
    1UNL    H15   49   0.300   0.312  -0.147
    1UNL    H16   50   0.143   0.164  -0.324
    1UNL    H17   51   0.105   0.083  -0.185
    1UNL    H18   52  -0.079   0.363  -0.058
    1UNL    H19   53   0.105   0.386   0.237
    1UNL    H20   54   0.278   0.222   0.243
    1UNL    H21   55   0.152   0.179   0.350
    1UNL    H22   56   0.073   0.040   0.170
    1UNL    H23   57  -0.145   0.350   0.202
    1UNL    H24   58  -0.174   0.153   0.335
    1UNL    H25   59  -0.243   0.159   0.111
    1UNL    H26   60  -0.167  -0.170   0.119
    1UNL    H27   61  -0.288  -0.235  -0.084
    1UNL    H28   62  -0.422  -0.143  -0.234
    1UNL    H29   63  -0.528  -0.245  -0.143
    1UNL    H30   64  -0.510   0.038  -0.106
    1UNL    H31   65  -0.509  -0.312   0.071
    1UNL    H32   66  -0.350  -0.418   0.214
    1UNL    H33   67  -0.473  -0.241   0.305
    1UNL    H34   68  -0.544  -0.045   0.116
    1UNL    H35   69  -0.250  -0.135   0.330
    1UNL    H36   70  -0.427   0.072   0.267
    1UNL    H37   71   0.005   0.079  -0.042
    1UNL    H38   72  -0.216   0.061  -0.108
   0.00000   0.00000   0.00000   0.00000   0.00000   0.00000   0.00000   0.00000   0.00000
Generated with MDTraj, t= 37.0
 72
    1UNL     C1    1   0.196  -0.216  -0.380
    1UNL     C2    2   0.322  -0.291  -0.339
    1UNL     C3    3   0.338  -0.440  -0.365
    1UNL     C4    4   0.415  -0.226  -0.268
    1UNL     C5    5   0.423  -0.082  -0.253
    1UNL     C6    6   0.323  -0.024  -0.149
    1UNL     O1    7   0.336  -0.108  -0.029
    1UNL     C7    8   0.353   0.126  -0.124
    1UNL     C8    9   0.477   0.147  -0.047
    1UNL     C9   10   0.279   0.224  -0.169
    1UNL    C10   11   0.144   0.222  -0.238
    1UNL     O2   12   0.043   0.314  -0.195
    1UNL    C11   13   0.001   0.282  -0.064
    1UNL     O3   14   0.109   0.307   0.032
    1UNL    C12   15   0.075   0.279   0.175
    1UNL    C13   16   0.173   0.182   0.236
    1UNL     O4   17   0.170   0.058   0.187
    1UNL    C14   18  -0.071   0.241   0.204
    1UNL     O5   19  -0.079   0.185   0.337
    1UNL    C15   20  -0.126   0.133   0.103
    1UNL     O6   21  -0.110   0.003   0.150
    1UNL    C16   22  -0.226  -0.069   0.128
    1UNL     O7   23  -0.306  -0.048   0.011
    1UNL    C17   24  -0.366  -0.174  -0.034
    1UNL    C18   25  -0.475  -0.135  -0.133
    1UNL     O8   26  -0.580  -0.054  -0.081
    1UNL    C19   27  -0.417  -0.246   0.097
    1UNL     O9   28  -0.325  -0.350   0.123
    1UNL    C20   29  -0.443  -0.162   0.219
    1UNL    O10   30  -0.547  -0.067   0.217
    1UNL    C21   31  -0.312  -0.079   0.259
    1UNL    O11   32  -0.352   0.048   0.310
    1UNL    C22   33  -0.063   0.147  -0.042
    1UNL    O12   34  -0.160   0.121  -0.144
    1UNL     H1   35   0.137  -0.193  -0.283
    1UNL     H2   36   0.138  -0.290  -0.446
    1UNL     H3   37   0.220  -0.123  -0.438
    1UNL     H4   38   0.400  -0.445  -0.456
    1UNL     H5   39   0.245  -0.501  -0.373
    1UNL     H6   40   0.392  -0.478  -0.276
    1UNL     H7   41   0.508  -0.281  -0.252
    1UNL     H8   42   0.529  -0.058  -0.221
    1UNL     H9   43   0.408  -0.029  -0.349
    1UNL    H10   44   0.213  -0.031  -0.177
    1UNL    H11   45   0.277  -0.072   0.045
    1UNL    H12   46   0.548   0.208  -0.107
    1UNL    H13   47   0.456   0.212   0.043
    1UNL    H14   48   0.529   0.057  -0.008
    1UNL    H15   49   0.313   0.332  -0.165
    1UNL    H16   50   0.150   0.210  -0.349
    1UNL    H17   51   0.094   0.125  -0.225
    1UNL    H18   52  -0.075   0.353  -0.038
    1UNL    H19   53   0.102   0.387   0.207
    1UNL    H20   54   0.279   0.216   0.224
    1UNL    H21   55   0.165   0.170   0.348
    1UNL    H22   56   0.073   0.035   0.179
    1UNL    H23   57  -0.144   0.320   0.202
    1UNL    H24   58  -0.165   0.127   0.340
    1UNL    H25   59  -0.240   0.151   0.097
    1UNL    H26   60  -0.177  -0.173   0.106
    1UNL    H27   61  -0.292  -0.234  -0.080
    1UNL    H28   62  -0.422  -0.077  -0.218
    1UNL    H29   63  -0.517  -0.223  -0.174
    1UNL    H30   64  -0.553   0.038  -0.066
    1UNL    H31   65  -0.516  -0.297   0.073
    1UNL    H32   66  -0.349  -0.399   0.209
    1UNL    H33   67  -0.473  -0.223   0.311
    1UNL    H34   68  -0.560  -0.048   0.122
    1UNL    H35   69  -0.254  -0.122   0.340
    1UNL    H36   70  -0.444   0.077   0.289
    1UNL    H37   71   0.018   0.067  -0.059
    1UNL    H38   72  -0.212   0.042  -0.113
   0.00000   0.00000   0.00000   0.00000   0.00000   0.00000   0.00000   0.00000   0.00000
Generated with MDTraj, t= 38.0
 72
    1UNL     C1    1   0.179  -0.249  -0.332
    1UNL     C2    2   0.321  -0.283  -0.319
    1UNL     C3    3   0.353  -0.428  -0.307
    1UNL     C4    4   0.419  -0.196  -0.293
    1UNL     C5    5   0.420  -0.049  -0.273
    1UNL     C6    6   0.325  -0.000  -0.163
    1UNL     O1    7   0.329  -0.084  -0.048
    1UNL     C7    8   0.349   0.144  -0.129
    1UNL     C8    9   0.454   0.167  -0.025
    1UNL     C9   10   0.282   0.242  -0.177
    1UNL    C10   11   0.152   0.249  -0.246
    1UNL     O2   12   0.047   0.323  -0.188
    1UNL    C11   13   0.017   0.278  -0.061
    1UNL     O3   14   0.130   0.283   0.031
    1UNL    C12   15   0.090   0.263   0.171
    1UNL    C13   16   0.178   0.153   0.236
    1UNL     O4   17   0.174   0.030   0.162
    1UNL    C14   18  -0.058   0.238   0.191
    1UNL     O5   19  -0.079   0.187   0.321
    1UNL    C15   20  -0.120   0.128   0.091
    1UNL     O6   21  -0.114  -0.005   0.143
    1UNL    C16   22  -0.232  -0.081   0.118
    1UNL     O7   23  -0.309  -0.068  -0.006
    1UNL    C17   24  -0.397  -0.184  -0.031
    1UNL    C18   25  -0.511  -0.131  -0.109
    1UNL     O8   26  -0.559  -0.005  -0.069
    1UNL    C19   27  -0.439  -0.256   0.111
    1UNL     O9   28  -0.356  -0.364   0.141
    1UNL    C20   29  -0.446  -0.166   0.232
    1UNL    O10   30  -0.549  -0.072   0.210
    1UNL    C21   31  -0.308  -0.084   0.257
    1UNL    O11   32  -0.351   0.038   0.301
    1UNL    C22   33  -0.045   0.142  -0.050
    1UNL    O12   34  -0.130   0.104  -0.158
    1UNL     H1   35   0.123  -0.255  -0.234
    1UNL     H2   36   0.121  -0.313  -0.407
    1UNL     H3   37   0.157  -0.145  -0.377
    1UNL     H4   38   0.453  -0.448  -0.345
    1UNL     H5   39   0.292  -0.512  -0.345
    1UNL     H6   40   0.354  -0.455  -0.199
    1UNL     H7   41   0.518  -0.238  -0.275
    1UNL     H8   42   0.520  -0.001  -0.246
    1UNL     H9   43   0.391  -0.006  -0.370
    1UNL    H10   44   0.218  -0.013  -0.202
    1UNL    H11   45   0.285  -0.043   0.033
    1UNL    H12   46   0.515   0.256  -0.051
    1UNL    H13   47   0.399   0.182   0.071
    1UNL    H14   48   0.519   0.076  -0.021
    1UNL    H15   49   0.315   0.333  -0.149
    1UNL    H16   50   0.165   0.307  -0.340
    1UNL    H17   51   0.113   0.155  -0.287
    1UNL    H18   52  -0.043   0.354  -0.013
    1UNL    H19   53   0.112   0.369   0.200
    1UNL    H20   54   0.285   0.175   0.242
    1UNL    H21   55   0.141   0.146   0.339
    1UNL    H22   56   0.081  -0.001   0.157
    1UNL    H23   57  -0.126   0.319   0.179
    1UNL    H24   58  -0.154   0.132   0.323
    1UNL    H25   59  -0.234   0.152   0.079
    1UNL    H26   60  -0.188  -0.187   0.103
    1UNL    H27   61  -0.341  -0.258  -0.084
    1UNL    H28   62  -0.485  -0.123  -0.221
    1UNL    H29   63  -0.597  -0.196  -0.102
    1UNL    H30   64  -0.480   0.057  -0.088
    1UNL    H31   65  -0.539  -0.310   0.099
    1UNL    H32   66  -0.380  -0.407   0.227
    1UNL    H33   67  -0.471  -0.230   0.322
    1UNL    H34   68  -0.543  -0.043   0.114
    1UNL    H35   69  -0.260  -0.133   0.337
    1UNL    H36   70  -0.424   0.073   0.245
    1UNL    H37   71   0.037   0.062  -0.038
    1UNL    H38   72  -0.185   0.036  -0.116
   0.00000   0.00000   0.00000   0.00000   0.00000   0.00000   0.00000   0.00000   0.00000
Generated with MDTraj, t= 39.0
 72
    1UNL     C1    1   0.171  -0.249  -0.286
    1UNL     C2    2   0.319  -0.269  -0.285
    1UNL     C3    3   0.363  -0.409  -0.259
    1UNL     C4    4   0.418  -0.180  -0.296
    1UNL     C5    5   0.395  -0.036  -0.289
    1UNL     C6    6   0.329   0.014  -0.162
    1UNL     O1    7   0.342  -0.072  -0.046
    1UNL     C7    8   0.359   0.159  -0.138
    1UNL     C8    9   0.488   0.183  -0.064
    1UNL     C9   10   0.277   0.252  -0.170
    1UNL    C10   11   0.149   0.239  -0.241
    1UNL     O2   12   0.039   0.309  -0.189
    1UNL    C11   13   0.008   0.271  -0.054
    1UNL     O3   14   0.108   0.299   0.041
    1UNL    C12   15   0.080   0.243   0.168
    1UNL    C13   16   0.182   0.138   0.221
    1UNL     O4   17   0.170   0.015   0.146
    1UNL    C14   18  -0.069   0.202   0.185
    1UNL     O5   19  -0.085   0.150   0.322
    1UNL    C15   20  -0.120   0.096   0.086
    1UNL     O6   21  -0.099  -0.035   0.126
    1UNL    C16   22  -0.220  -0.104   0.119
    1UNL     O7   23  -0.291  -0.085  -0.008
    1UNL    C17   24  -0.405  -0.175  -0.029
    1UNL    C18   25  -0.512  -0.098  -0.103
    1UNL     O8   26  -0.528   0.037  -0.054
    1UNL    C19   27  -0.451  -0.253   0.103
    1UNL     O9   28  -0.371  -0.364   0.142
    1UNL    C20   29  -0.445  -0.162   0.227
    1UNL    O10   30  -0.549  -0.067   0.229
    1UNL    C21   31  -0.312  -0.072   0.240
    1UNL    O11   32  -0.352   0.057   0.258
    1UNL    C22   33  -0.041   0.123  -0.047
    1UNL    O12   34  -0.130   0.101  -0.160
    1UNL     H1   35   0.140  -0.195  -0.194
    1UNL     H2   36   0.095  -0.335  -0.299
    1UNL     H3   37   0.141  -0.181  -0.376
    1UNL     H4   38   0.467  -0.432  -0.283
    1UNL     H5   39   0.305  -0.488  -0.310
    1UNL     H6   40   0.345  -0.436  -0.154
    1UNL     H7   41   0.518  -0.215  -0.302
    1UNL     H8   42   0.498   0.010  -0.295
    1UNL     H9   43   0.333   0.005  -0.369
    1UNL    H10   44   0.219  -0.002  -0.190
    1UNL    H11   45   0.280  -0.042   0.020
    1UNL    H12   46   0.576   0.187  -0.133
    1UNL    H13   47   0.471   0.268   0.003
    1UNL    H14   48   0.504   0.087  -0.006
    1UNL    H15   49   0.314   0.359  -0.157
    1UNL    H16   50   0.172   0.276  -0.344
    1UNL    H17   51   0.120   0.133  -0.249
    1UNL    H18   52  -0.075   0.333  -0.020
    1UNL    H19   53   0.100   0.334   0.225
    1UNL    H20   54   0.282   0.181   0.219
    1UNL    H21   55   0.163   0.114   0.324
    1UNL    H22   56   0.073  -0.002   0.136
    1UNL    H23   57  -0.136   0.287   0.196
    1UNL    H24   58  -0.174   0.099   0.315
    1UNL    H25   59  -0.228   0.131   0.056
    1UNL    H26   60  -0.189  -0.213   0.124
    1UNL    H27   61  -0.369  -0.259  -0.091
    1UNL    H28   62  -0.497  -0.083  -0.213
    1UNL    H29   63  -0.609  -0.150  -0.101
    1UNL    H30   64  -0.438   0.061  -0.033
    1UNL    H31   65  -0.561  -0.279   0.092
    1UNL    H32   66  -0.407  -0.392   0.225
    1UNL    H33   67  -0.452  -0.218   0.322
    1UNL    H34   68  -0.539  -0.005   0.154
    1UNL    H35   69  -0.260  -0.097   0.328
    1UNL    H36   70  -0.423   0.068   0.324
    1UNL    H37   71   0.037   0.040  -0.057
    1UNL    H38   72  -0.188   0.021  -0.140
   0.00000   0.00000   0.00000   0.00000   0.00000   0.00000   0.00000   0.00000   0.00000
Generated with MDTraj, t= 40.0
 72
    1UNL     C1    1   0.177  -0.232  -0.238
    1UNL     C2    2   0.319  -0.289  -0.257
    1UNL     C3    3   0.351  -0.432  -0.252
    1UNL     C4    4   0.413  -0.195  -0.283
    1UNL     C5    5   0.389  -0.048  -0.295
    1UNL     C6    6   0.339   0.022  -0.164
    1UNL     O1    7   0.408  -0.037  -0.052
    1UNL     C7    8   0.361   0.172  -0.160
    1UNL     C8    9   0.488   0.213  -0.096
    1UNL     C9   10   0.260   0.253  -0.189
    1UNL    C10   11   0.121   0.235  -0.244
    1UNL     O2   12   0.023   0.305  -0.183
    1UNL    C11   13   0.002   0.267  -0.050
    1UNL     O3   14   0.108   0.295   0.040
    1UNL    C12   15   0.087   0.250   0.177
    1UNL    C13   16   0.195   0.143   0.224
    1UNL     O4   17   0.193   0.023   0.157
    1UNL    C14   18  -0.057   0.192   0.201
    1UNL     O5   19  -0.044   0.121   0.331
    1UNL    C15   20  -0.112   0.090   0.095
    1UNL     O6   21  -0.107  -0.045   0.128
    1UNL    C16   22  -0.229  -0.111   0.110
    1UNL     O7   23  -0.287  -0.094  -0.023
    1UNL    C17   24  -0.415  -0.166  -0.037
    1UNL    C18   25  -0.520  -0.071  -0.100
    1UNL     O8   26  -0.534   0.048  -0.017
    1UNL    C19   27  -0.458  -0.249   0.088
    1UNL     O9   28  -0.384  -0.371   0.119
    1UNL    C20   29  -0.462  -0.159   0.214
    1UNL    O10   30  -0.573  -0.072   0.223
    1UNL    C21   31  -0.333  -0.072   0.221
    1UNL    O11   32  -0.358   0.064   0.224
    1UNL    C22   33  -0.044   0.121  -0.036
    1UNL    O12   34  -0.126   0.087  -0.151
    1UNL     H1   35   0.172  -0.224  -0.125
    1UNL     H2   36   0.096  -0.303  -0.278
    1UNL     H3   37   0.163  -0.131  -0.289
    1UNL     H4   38   0.447  -0.438  -0.304
    1UNL     H5   39   0.269  -0.488  -0.298
    1UNL     H6   40   0.363  -0.456  -0.145
    1UNL     H7   41   0.516  -0.226  -0.311
    1UNL     H8   42   0.485   0.007  -0.322
    1UNL     H9   43   0.318  -0.040  -0.379
    1UNL    H10   44   0.226   0.001  -0.159
    1UNL    H11   45   0.355  -0.012   0.031
    1UNL    H12   46   0.583   0.205  -0.157
    1UNL    H13   47   0.475   0.310  -0.050
    1UNL    H14   48   0.523   0.140  -0.016
    1UNL    H15   49   0.283   0.357  -0.188
    1UNL    H16   50   0.131   0.275  -0.347
    1UNL    H17   51   0.102   0.126  -0.242
    1UNL    H18   52  -0.082   0.331  -0.017
    1UNL    H19   53   0.110   0.333   0.238
    1UNL    H20   54   0.296   0.179   0.208
    1UNL    H21   55   0.181   0.133   0.329
    1UNL    H22   56   0.102  -0.012   0.163
    1UNL    H23   57  -0.125   0.280   0.224
    1UNL    H24   58  -0.128   0.058   0.338
    1UNL    H25   59  -0.216   0.128   0.064
    1UNL    H26   60  -0.208  -0.221   0.120
    1UNL    H27   61  -0.388  -0.247  -0.112
    1UNL    H28   62  -0.495  -0.049  -0.205
    1UNL    H29   63  -0.627  -0.109  -0.104
    1UNL    H30   64  -0.439   0.079   0.002
    1UNL    H31   65  -0.559  -0.284   0.060
    1UNL    H32   66  -0.414  -0.422   0.196
    1UNL    H33   67  -0.462  -0.228   0.298
    1UNL    H34   68  -0.580  -0.020   0.140
    1UNL    H35   69  -0.293  -0.100   0.317
    1UNL    H36   70  -0.406   0.091   0.308
    1UNL    H37   71   0.043   0.048  -0.047
    1UNL    H38   72  -0.175   0.009  -0.124
   0.00000   0.00000   0.00000   0.00000   0.00000   0.00000   0.00000   0.00000   0.00000
Generated with MDTraj, t= 41.0
 72
    1UNL     C1    1   0.174  -0.223  -0.202
    1UNL     C2    2   0.304  -0.272  -0.237
    1UNL     C3    3   0.335  -0.427  -0.251
    1UNL     C4    4   0.409  -0.191  -0.268
    1UNL     C5    5   0.402  -0.042  -0.275
    1UNL     C6    6   0.340   0.033  -0.153
    1UNL     O1    7   0.400  -0.014  -0.031
    1UNL     C7    8   0.351   0.182  -0.170
    1UNL     C8    9   0.487   0.238  -0.144
    1UNL     C9   10   0.263   0.261  -0.224
    1UNL    C10   11   0.123   0.220  -0.250
    1UNL     O2   12   0.022   0.292  -0.184
    1UNL    C11   13   0.003   0.249  -0.051
    1UNL     O3   14   0.118   0.280   0.037
    1UNL    C12   15   0.099   0.237   0.175
    1UNL    C13   16   0.205   0.129   0.219
    1UNL     O4   17   0.197   0.013   0.155
    1UNL    C14   18  -0.041   0.182   0.210
    1UNL     O5   19  -0.028   0.112   0.334
    1UNL    C15   20  -0.103   0.089   0.102
    1UNL     O6   21  -0.114  -0.046   0.145
    1UNL    C16   22  -0.235  -0.106   0.115
    1UNL     O7   23  -0.289  -0.070  -0.013
    1UNL    C17   24  -0.410  -0.152  -0.038
    1UNL    C18   25  -0.513  -0.056  -0.097
    1UNL     O8   26  -0.538   0.048  -0.014
    1UNL    C19   27  -0.460  -0.241   0.072
    1UNL     O9   28  -0.389  -0.366   0.073
    1UNL    C20   29  -0.456  -0.167   0.217
    1UNL    O10   30  -0.577  -0.091   0.240
    1UNL    C21   31  -0.338  -0.067   0.222
    1UNL    O11   32  -0.392   0.061   0.211
    1UNL    C22   33  -0.037   0.106  -0.035
    1UNL    O12   34  -0.112   0.061  -0.149
    1UNL     H1   35   0.195  -0.173  -0.100
    1UNL     H2   36   0.104  -0.314  -0.186
    1UNL     H3   37   0.139  -0.147  -0.275
    1UNL     H4   38   0.390  -0.445  -0.343
    1UNL     H5   39   0.244  -0.486  -0.254
    1UNL     H6   40   0.399  -0.462  -0.169
    1UNL     H7   41   0.498  -0.238  -0.298
    1UNL     H8   42   0.509  -0.005  -0.290
    1UNL     H9   43   0.341  -0.016  -0.363
    1UNL    H10   44   0.227   0.016  -0.155
    1UNL    H11   45   0.336  -0.008   0.042
    1UNL    H12   46   0.540   0.285  -0.232
    1UNL    H13   47   0.477   0.313  -0.066
    1UNL    H14   48   0.571   0.166  -0.122
    1UNL    H15   49   0.288   0.364  -0.243
    1UNL    H16   50   0.105   0.231  -0.358
    1UNL    H17   51   0.108   0.114  -0.232
    1UNL    H18   52  -0.074   0.322  -0.016
    1UNL    H19   53   0.121   0.330   0.221
    1UNL    H20   54   0.302   0.173   0.197
    1UNL    H21   55   0.197   0.104   0.324
    1UNL    H22   56   0.100  -0.010   0.151
    1UNL    H23   57  -0.112   0.272   0.213
    1UNL    H24   58  -0.085   0.040   0.319
    1UNL    H25   59  -0.212   0.121   0.093
    1UNL    H26   60  -0.218  -0.216   0.110
    1UNL    H27   61  -0.374  -0.226  -0.119
    1UNL    H28   62  -0.480  -0.010  -0.191
    1UNL    H29   63  -0.611  -0.116  -0.116
    1UNL    H30   64  -0.459   0.088   0.022
    1UNL    H31   65  -0.565  -0.258   0.055
    1UNL    H32   66  -0.435  -0.418   0.146
    1UNL    H33   67  -0.451  -0.236   0.298
    1UNL    H34   68  -0.595  -0.048   0.152
    1UNL    H35   69  -0.294  -0.073   0.322
    1UNL    H36   70  -0.474   0.069   0.265
    1UNL    H37   71   0.056   0.042  -0.023
    1UNL    H38   72  -0.177  -0.006  -0.116
   0.00000   0.00000   0.00000   0.00000   0.00000   0.00000   0.00000   0.00000   0.00000
Generated with MDTraj, t= 42.0
 72
    1UNL     C1    1   0.156  -0.222  -0.198
    1UNL     C2    2   0.294  -0.269  -0.230
    1UNL     C3    3   0.313  -0.411  -0.200
    1UNL     C4    4   0.392  -0.185  -0.272
    1UNL     C5    5   0.404  -0.040  -0.286
    1UNL     C6    6   0.355   0.043  -0.162
    1UNL     O1    7   0.411  -0.014  -0.046
    1UNL     C7    8   0.370   0.197  -0.179
    1UNL     C8    9   0.501   0.264  -0.151
    1UNL     C9   10   0.272   0.269  -0.229
    1UNL    C10   11   0.134   0.223  -0.256
    1UNL     O2   12   0.036   0.301  -0.183
    1UNL    C11   13   0.012   0.251  -0.050
    1UNL     O3   14   0.128   0.275   0.041
    1UNL    C12   15   0.105   0.222   0.170
    1UNL    C13   16   0.210   0.113   0.215
    1UNL     O4   17   0.194  -0.014   0.158
    1UNL    C14   18  -0.041   0.188   0.203
    1UNL     O5   19  -0.063   0.136   0.333
    1UNL    C15   20  -0.105   0.095   0.093
    1UNL     O6   21  -0.112  -0.042   0.142
    1UNL    C16   22  -0.233  -0.114   0.115
    1UNL     O7   23  -0.294  -0.079  -0.014
    1UNL    C17   24  -0.416  -0.155  -0.048
    1UNL    C18   25  -0.519  -0.050  -0.102
    1UNL     O8   26  -0.561   0.032   0.000
    1UNL    C19   27  -0.473  -0.239   0.069
    1UNL     O9   28  -0.388  -0.354   0.071
    1UNL    C20   29  -0.467  -0.167   0.209
    1UNL    O10   30  -0.589  -0.103   0.241
    1UNL    C21   31  -0.339  -0.081   0.229
    1UNL    O11   32  -0.368   0.052   0.231
    1UNL    C22   33  -0.021   0.104  -0.043
    1UNL    O12   34  -0.097   0.046  -0.154
    1UNL     H1   35   0.146  -0.174  -0.092
    1UNL     H2   36   0.086  -0.310  -0.187
    1UNL     H3   37   0.098  -0.154  -0.265
    1UNL     H4   38   0.301  -0.479  -0.284
    1UNL     H5   39   0.251  -0.453  -0.123
    1UNL     H6   40   0.416  -0.432  -0.171
    1UNL     H7   41   0.494  -0.228  -0.295
    1UNL     H8   42   0.512  -0.010  -0.293
    1UNL     H9   43   0.354   0.003  -0.375
    1UNL    H10   44   0.245   0.022  -0.156
    1UNL    H11   45   0.337  -0.017   0.026
    1UNL    H12   46   0.529   0.327  -0.238
    1UNL    H13   47   0.478   0.329  -0.064
    1UNL    H14   48   0.587   0.195  -0.137
    1UNL    H15   49   0.274   0.382  -0.232
    1UNL    H16   50   0.101   0.224  -0.359
    1UNL    H17   51   0.120   0.118  -0.234
    1UNL    H18   52  -0.073   0.313  -0.009
    1UNL    H19   53   0.121   0.312   0.231
    1UNL    H20   54   0.313   0.147   0.199
    1UNL    H21   55   0.192   0.107   0.323
    1UNL    H22   56   0.095  -0.028   0.159
    1UNL    H23   57  -0.103   0.284   0.207
    1UNL    H24   58  -0.030   0.043   0.326
    1UNL    H25   59  -0.214   0.117   0.086
    1UNL    H26   60  -0.204  -0.218   0.102
    1UNL    H27   61  -0.383  -0.225  -0.134
    1UNL    H28   62  -0.472   0.005  -0.185
    1UNL    H29   63  -0.624  -0.094  -0.137
    1UNL    H30   64  -0.491   0.051   0.066
    1UNL    H31   65  -0.572  -0.269   0.045
    1UNL    H32   66  -0.422  -0.430   0.129
    1UNL    H33   67  -0.459  -0.244   0.279
    1UNL    H34   68  -0.597  -0.022   0.184
    1UNL    H35   69  -0.282  -0.097   0.326
    1UNL    H36   70  -0.435   0.073   0.298
    1UNL    H37   71   0.072   0.044  -0.018
    1UNL    H38   72  -0.155  -0.023  -0.111
   0.00000   0.00000   0.00000   0.00000   0.00000   0.00000   0.00000   0.00000   0.00000
Generated with MDTraj, t= 43.0
 72
    1UNL     C1    1   0.143  -0.215  -0.223
    1UNL     C2    2   0.284  -0.259  -0.220
    1UNL     C3    3   0.293  -0.392  -0.158
    1UNL     C4    4   0.394  -0.185  -0.248
    1UNL     C5    5   0.386  -0.041  -0.288
    1UNL     C6    6   0.349   0.043  -0.156
    1UNL     O1    7   0.417  -0.017  -0.050
    1UNL     C7    8   0.369   0.193  -0.166
    1UNL     C8    9   0.517   0.239  -0.137
    1UNL     C9   10   0.284   0.275  -0.225
    1UNL    C10   11   0.143   0.239  -0.260
    1UNL     O2   12   0.049   0.311  -0.185
    1UNL    C11   13   0.023   0.253  -0.059
    1UNL     O3   14   0.128   0.265   0.040
    1UNL    C12   15   0.098   0.229   0.178
    1UNL    C13   16   0.195   0.112   0.227
    1UNL     O4   17   0.185   0.002   0.137
    1UNL    C14   18  -0.050   0.184   0.194
    1UNL     O5   19  -0.066   0.111   0.313
    1UNL    C15   20  -0.112   0.096   0.083
    1UNL     O6   21  -0.102  -0.045   0.123
    1UNL    C16   22  -0.226  -0.113   0.107
    1UNL     O7   23  -0.299  -0.085  -0.009
    1UNL    C17   24  -0.421  -0.157  -0.036
    1UNL    C18   25  -0.536  -0.061  -0.085
    1UNL     O8   26  -0.533   0.056  -0.007
    1UNL    C19   27  -0.464  -0.246   0.074
    1UNL     O9   28  -0.389  -0.367   0.074
    1UNL    C20   29  -0.448  -0.185   0.215
    1UNL    O10   30  -0.571  -0.118   0.252
    1UNL    C21   31  -0.321  -0.083   0.229
    1UNL    O11   32  -0.354   0.050   0.220
    1UNL    C22   33  -0.034   0.113  -0.060
    1UNL    O12   34  -0.123   0.070  -0.164
    1UNL     H1   35   0.103  -0.193  -0.121
    1UNL     H2   36   0.069  -0.284  -0.276
    1UNL     H3   37   0.146  -0.114  -0.277
    1UNL     H4   38   0.211  -0.461  -0.178
    1UNL     H5   39   0.298  -0.387  -0.051
    1UNL     H6   40   0.380  -0.445  -0.195
    1UNL     H7   41   0.486  -0.226  -0.221
    1UNL     H8   42   0.485   0.002  -0.316
    1UNL     H9   43   0.321  -0.013  -0.373
    1UNL    H10   44   0.242   0.023  -0.139
    1UNL    H11   45   0.359  -0.026   0.024
    1UNL    H12   46   0.561   0.275  -0.230
    1UNL    H13   47   0.519   0.325  -0.066
    1UNL    H14   48   0.576   0.155  -0.097
    1UNL    H15   49   0.300   0.375  -0.215
    1UNL    H16   50   0.126   0.260  -0.366
    1UNL    H17   51   0.121   0.133  -0.256
    1UNL    H18   52  -0.065   0.316  -0.025
    1UNL    H19   53   0.111   0.322   0.240
    1UNL    H20   54   0.293   0.163   0.212
    1UNL    H21   55   0.184   0.087   0.335
    1UNL    H22   56   0.094  -0.033   0.142
    1UNL    H23   57  -0.114   0.275   0.212
    1UNL    H24   58  -0.165   0.089   0.335
    1UNL    H25   59  -0.213   0.122   0.056
    1UNL    H26   60  -0.213  -0.220   0.106
    1UNL    H27   61  -0.395  -0.228  -0.124
    1UNL    H28   62  -0.538  -0.021  -0.190
    1UNL    H29   63  -0.646  -0.109  -0.069
    1UNL    H30   64  -0.441   0.066   0.036
    1UNL    H31   65  -0.567  -0.266   0.052
    1UNL    H32   66  -0.436  -0.433   0.128
    1UNL    H33   67  -0.445  -0.268   0.279
    1UNL    H34   68  -0.562  -0.030   0.210
    1UNL    H35   69  -0.274  -0.101   0.331
    1UNL    H36   70  -0.411   0.067   0.300
    1UNL    H37   71   0.050   0.039  -0.069
    1UNL    H38   72  -0.175  -0.006  -0.135
   0.00000   0.00000   0.00000   0.00000   0.00000   0.00000   0.00000   0.00000   0.00000
Generated with MDTraj, t= 44.0
 72
    1UNL     C1    1   0.138  -0.204  -0.249
    1UNL     C2    2   0.267  -0.259  -0.202
    1UNL     C3    3   0.260  -0.405  -0.158
    1UNL     C4    4   0.383  -0.192  -0.216
    1UNL     C5    5   0.385  -0.049  -0.261
    1UNL     C6    6   0.337   0.035  -0.139
    1UNL     O1    7   0.407  -0.011  -0.027
    1UNL     C7    8   0.370   0.184  -0.164
    1UNL     C8    9   0.505   0.221  -0.125
    1UNL     C9   10   0.286   0.275  -0.209
    1UNL    C10   11   0.152   0.245  -0.259
    1UNL     O2   12   0.047   0.315  -0.197
    1UNL    C11   13   0.016   0.266  -0.065
    1UNL     O3   14   0.126   0.264   0.029
    1UNL    C12   15   0.096   0.228   0.164
    1UNL    C13   16   0.190   0.120   0.222
    1UNL     O4   17   0.166  -0.002   0.163
    1UNL    C14   18  -0.058   0.181   0.177
    1UNL     O5   19  -0.069   0.117   0.304
    1UNL    C15   20  -0.115   0.091   0.063
    1UNL     O6   21  -0.088  -0.055   0.088
    1UNL    C16   22  -0.213  -0.123   0.080
    1UNL     O7   23  -0.291  -0.084  -0.027
    1UNL    C17   24  -0.414  -0.159  -0.039
    1UNL    C18   25  -0.525  -0.063  -0.070
    1UNL     O8   26  -0.529   0.042   0.025
    1UNL    C19   27  -0.452  -0.245   0.081
    1UNL     O9   28  -0.370  -0.370   0.080
    1UNL    C20   29  -0.436  -0.182   0.216
    1UNL    O10   30  -0.548  -0.101   0.245
    1UNL    C21   31  -0.299  -0.102   0.219
    1UNL    O11   32  -0.308   0.032   0.236
    1UNL    C22   33  -0.058   0.127  -0.076
    1UNL    O12   34  -0.162   0.122  -0.179
    1UNL     H1   35   0.073  -0.191  -0.162
    1UNL     H2   36   0.086  -0.273  -0.322
    1UNL     H3   37   0.161  -0.102  -0.297
    1UNL     H4   38   0.164  -0.424  -0.111
    1UNL     H5   39   0.343  -0.418  -0.091
    1UNL     H6   40   0.271  -0.460  -0.250
    1UNL     H7   41   0.471  -0.229  -0.156
    1UNL     H8   42   0.492  -0.021  -0.276
    1UNL     H9   43   0.338  -0.025  -0.360
    1UNL    H10   44   0.229   0.017  -0.125
    1UNL    H11   45   0.341  -0.015   0.054
    1UNL    H12   46   0.556   0.266  -0.211
    1UNL    H13   47   0.506   0.309  -0.053
    1UNL    H14   48   0.552   0.137  -0.073
    1UNL    H15   49   0.320   0.383  -0.205
    1UNL    H16   50   0.149   0.265  -0.367
    1UNL    H17   51   0.148   0.140  -0.243
    1UNL    H18   52  -0.060   0.338  -0.026
    1UNL    H19   53   0.112   0.325   0.224
    1UNL    H20   54   0.300   0.139   0.220
    1UNL    H21   55   0.157   0.114   0.330
    1UNL    H22   56   0.068  -0.005   0.149
    1UNL    H23   57  -0.117   0.271   0.192
    1UNL    H24   58  -0.147   0.068   0.315
    1UNL    H25   59  -0.220   0.109   0.060
    1UNL    H26   60  -0.188  -0.226   0.071
    1UNL    H27   61  -0.395  -0.237  -0.119
    1UNL    H28   62  -0.507  -0.016  -0.171
    1UNL    H29   63  -0.640  -0.097  -0.072
    1UNL    H30   64  -0.436   0.082   0.021
    1UNL    H31   65  -0.558  -0.270   0.078
    1UNL    H32   66  -0.411  -0.436   0.134
    1UNL    H33   67  -0.434  -0.254   0.293
    1UNL    H34   68  -0.552  -0.030   0.180
    1UNL    H35   69  -0.226  -0.128   0.301
    1UNL    H36   70  -0.381   0.052   0.297
    1UNL    H37   71   0.018   0.050  -0.102
    1UNL    H38   72  -0.245   0.075  -0.150
   0.00000   0.00000   0.00000   0.00000   0.00000   0.00000   0.00000   0.00000   0.00000
Generated with MDTraj, t= 45.0
 72
    1UNL     C1    1   0.119  -0.190  -0.260
    1UNL     C2    2   0.237  -0.265  -0.209
    1UNL     C3    3   0.228  -0.417  -0.183
    1UNL     C4    4   0.359  -0.210  -0.211
    1UNL     C5    5   0.388  -0.068  -0.240
    1UNL     C6    6   0.346   0.031  -0.124
    1UNL     O1    7   0.404   0.005   0.001
    1UNL     C7    8   0.375   0.183  -0.157
    1UNL     C8    9   0.498   0.237  -0.091
    1UNL     C9   10   0.286   0.258  -0.222
    1UNL    C10   11   0.155   0.217  -0.272
    1UNL     O2   12   0.056   0.295  -0.208
    1UNL    C11   13   0.024   0.256  -0.079
    1UNL     O3   14   0.136   0.230   0.012
    1UNL    C12   15   0.098   0.236   0.154
    1UNL    C13   16   0.197   0.146   0.235
    1UNL     O4   17   0.181   0.015   0.202
    1UNL    C14   18  -0.051   0.194   0.180
    1UNL     O5   19  -0.058   0.135   0.306
    1UNL    C15   20  -0.116   0.107   0.062
    1UNL     O6   21  -0.088  -0.029   0.082
    1UNL    C16   22  -0.208  -0.109   0.073
    1UNL     O7   23  -0.296  -0.067  -0.027
    1UNL    C17   24  -0.410  -0.157  -0.041
    1UNL    C18   25  -0.533  -0.069  -0.072
    1UNL     O8   26  -0.540   0.046   0.002
    1UNL    C19   27  -0.438  -0.257   0.076
    1UNL     O9   28  -0.350  -0.380   0.049
    1UNL    C20   29  -0.410  -0.205   0.223
    1UNL    O10   30  -0.528  -0.141   0.273
    1UNL    C21   31  -0.286  -0.107   0.217
    1UNL    O11   32  -0.321   0.026   0.234
    1UNL    C22   33  -0.079   0.139  -0.080
    1UNL    O12   34  -0.190   0.170  -0.166
    1UNL     H1   35   0.080  -0.117  -0.186
    1UNL     H2   36   0.035  -0.266  -0.265
    1UNL     H3   37   0.123  -0.143  -0.361
    1UNL     H4   38   0.179  -0.440  -0.089
    1UNL     H5   39   0.330  -0.454  -0.187
    1UNL     H6   40   0.173  -0.458  -0.265
    1UNL     H7   41   0.438  -0.255  -0.161
    1UNL     H8   42   0.495  -0.067  -0.265
    1UNL     H9   43   0.342  -0.042  -0.338
    1UNL    H10   44   0.237   0.025  -0.109
    1UNL    H11   45   0.327   0.007   0.065
    1UNL    H12   46   0.568   0.289  -0.158
    1UNL    H13   47   0.483   0.327  -0.024
    1UNL    H14   48   0.543   0.164  -0.025
    1UNL    H15   49   0.313   0.357  -0.231
    1UNL    H16   50   0.162   0.235  -0.382
    1UNL    H17   51   0.142   0.112  -0.258
    1UNL    H18   52  -0.022   0.349  -0.040
    1UNL    H19   53   0.113   0.350   0.176
    1UNL    H20   54   0.298   0.176   0.201
    1UNL    H21   55   0.191   0.155   0.345
    1UNL    H22   56   0.095  -0.000   0.155
    1UNL    H23   57  -0.107   0.284   0.175
    1UNL    H24   58  -0.064   0.031   0.293
    1UNL    H25   59  -0.220   0.126   0.073
    1UNL    H26   60  -0.180  -0.208   0.050
    1UNL    H27   61  -0.398  -0.228  -0.123
    1UNL    H28   62  -0.535  -0.031  -0.180
    1UNL    H29   63  -0.635  -0.124  -0.053
    1UNL    H30   64  -0.448   0.078   0.004
    1UNL    H31   65  -0.543  -0.290   0.062
    1UNL    H32   66  -0.372  -0.459   0.101
    1UNL    H33   67  -0.386  -0.285   0.291
    1UNL    H34   68  -0.554  -0.072   0.206
    1UNL    H35   69  -0.218  -0.130   0.299
    1UNL    H36   70  -0.371   0.026   0.318
    1UNL    H37   71  -0.018   0.050  -0.103
    1UNL    H38   72  -0.245   0.092  -0.182
   0.00000   0.00000   0.00000   0.00000   0.00000   0.00000   0.00000   0.00000   0.00000
Generated with MDTraj, t= 46.0
 72
    1UNL     C1    1   0.093  -0.181  -0.273
    1UNL     C2    2   0.212  -0.254  -0.220
    1UNL     C3    3   0.207  -0.403  -0.191
    1UNL     C4    4   0.336  -0.208  -0.218
    1UNL     C5    5   0.374  -0.068  -0.225
    1UNL     C6    6   0.343   0.018  -0.098
    1UNL     O1    7   0.417  -0.012   0.026
    1UNL     C7    8   0.384   0.160  -0.138
    1UNL     C8    9   0.517   0.209  -0.083
    1UNL     C9   10   0.301   0.235  -0.210
    1UNL    C10   11   0.173   0.194  -0.269
    1UNL     O2   12   0.063   0.272  -0.225
    1UNL    C11   13   0.019   0.254  -0.095
    1UNL     O3   14   0.121   0.216   0.001
    1UNL    C12   15   0.096   0.250   0.135
    1UNL    C13   16   0.200   0.169   0.212
    1UNL     O4   17   0.196   0.034   0.190
    1UNL    C14   18  -0.050   0.222   0.174
    1UNL     O5   19  -0.064   0.168   0.302
    1UNL    C15   20  -0.117   0.117   0.071
    1UNL     O6   21  -0.080  -0.019   0.095
    1UNL    C16   22  -0.199  -0.100   0.084
    1UNL     O7   23  -0.281  -0.063  -0.021
    1UNL    C17   24  -0.388  -0.160  -0.053
    1UNL    C18   25  -0.517  -0.067  -0.072
    1UNL     O8   26  -0.560   0.004   0.043
    1UNL    C19   27  -0.415  -0.265   0.050
    1UNL     O9   28  -0.311  -0.367   0.024
    1UNL    C20   29  -0.404  -0.214   0.203
    1UNL    O10   30  -0.530  -0.170   0.260
    1UNL    C21   31  -0.288  -0.105   0.215
    1UNL    O11   32  -0.335   0.026   0.247
    1UNL    C22   33  -0.100   0.154  -0.075
    1UNL    O12   34  -0.217   0.207  -0.138
    1UNL     H1   35   0.061  -0.109  -0.191
    1UNL     H2   36   0.012  -0.255  -0.298
    1UNL     H3   37   0.115  -0.129  -0.367
    1UNL     H4   38   0.223  -0.432  -0.088
    1UNL     H5   39   0.271  -0.467  -0.252
    1UNL     H6   40   0.111  -0.448  -0.207
    1UNL     H7   41   0.412  -0.276  -0.173
    1UNL     H8   42   0.479  -0.060  -0.253
    1UNL     H9   43   0.330  -0.027  -0.320
    1UNL    H10   44   0.235   0.035  -0.067
    1UNL    H11   45   0.346  -0.030   0.095
    1UNL    H12   46   0.578   0.256  -0.162
    1UNL    H13   47   0.498   0.298  -0.020
    1UNL    H14   48   0.562   0.135  -0.015
    1UNL    H15   49   0.332   0.339  -0.217
    1UNL    H16   50   0.175   0.218  -0.379
    1UNL    H17   51   0.162   0.088  -0.269
    1UNL    H18   52  -0.033   0.348  -0.073
    1UNL    H19   53   0.114   0.363   0.157
    1UNL    H20   54   0.303   0.197   0.182
    1UNL    H21   55   0.186   0.189   0.319
    1UNL    H22   56   0.103   0.009   0.170
    1UNL    H23   57  -0.107   0.312   0.165
    1UNL    H24   58  -0.149   0.128   0.302
    1UNL    H25   59  -0.222   0.132   0.089
    1UNL    H26   60  -0.167  -0.197   0.062
    1UNL    H27   61  -0.354  -0.204  -0.144
    1UNL    H28   62  -0.495   0.004  -0.162
    1UNL    H29   63  -0.610  -0.132  -0.092
    1UNL    H30   64  -0.479   0.035   0.098
    1UNL    H31   65  -0.518  -0.310   0.031
    1UNL    H32   66  -0.335  -0.441   0.088
    1UNL    H33   67  -0.374  -0.297   0.268
    1UNL    H34   68  -0.573  -0.106   0.200
    1UNL    H35   69  -0.223  -0.131   0.296
    1UNL    H36   70  -0.420   0.005   0.294
    1UNL    H37   71  -0.075   0.063  -0.130
    1UNL    H38   72  -0.289   0.139  -0.130
   0.00000   0.00000   0.00000   0.00000   0.00000   0.00000   0.00000   0.00000   0.00000
Generated with MDTraj, t= 47.0
 72
    1UNL     C1    1   0.094  -0.175  -0.272
    1UNL     C2    2   0.197  -0.270  -0.213
    1UNL     C3    3   0.156  -0.403  -0.185
    1UNL     C4    4   0.326  -0.238  -0.207
    1UNL     C5    5   0.387  -0.103  -0.220
    1UNL     C6    6   0.349  -0.012  -0.103
    1UNL     O1    7   0.407  -0.048   0.026
    1UNL     C7    8   0.381   0.134  -0.138
    1UNL     C8    9   0.500   0.196  -0.077
    1UNL     C9   10   0.296   0.217  -0.206
    1UNL    C10   11   0.165   0.191  -0.269
    1UNL     O2   12   0.054   0.279  -0.230
    1UNL    C11   13   0.015   0.276  -0.095
    1UNL     O3   14   0.126   0.238  -0.002
    1UNL    C12   15   0.095   0.259   0.134
    1UNL    C13   16   0.186   0.177   0.227
    1UNL     O4   17   0.172   0.040   0.192
    1UNL    C14   18  -0.061   0.242   0.172
    1UNL     O5   19  -0.086   0.202   0.307
    1UNL    C15   20  -0.135   0.141   0.072
    1UNL     O6   21  -0.081   0.010   0.101
    1UNL    C16   22  -0.186  -0.084   0.081
    1UNL     O7   23  -0.284  -0.046  -0.020
    1UNL    C17   24  -0.375  -0.155  -0.057
    1UNL    C18   25  -0.514  -0.084  -0.066
    1UNL     O8   26  -0.537   0.004   0.040
    1UNL    C19   27  -0.373  -0.265   0.039
    1UNL     O9   28  -0.282  -0.365  -0.004
    1UNL    C20   29  -0.358  -0.227   0.195
    1UNL    O10   30  -0.490  -0.206   0.246
    1UNL    C21   31  -0.267  -0.109   0.217
    1UNL    O11   32  -0.344   0.006   0.248
    1UNL    C22   33  -0.113   0.184  -0.074
    1UNL    O12   34  -0.234   0.233  -0.130
    1UNL     H1   35   0.048  -0.115  -0.187
    1UNL     H2   36   0.018  -0.227  -0.334
    1UNL     H3   37   0.142  -0.100  -0.337
    1UNL     H4   38   0.213  -0.445  -0.104
    1UNL     H5   39   0.158  -0.465  -0.275
    1UNL     H6   40   0.056  -0.396  -0.144
    1UNL     H7   41   0.393  -0.303  -0.156
    1UNL     H8   42   0.495  -0.105  -0.238
    1UNL     H9   43   0.359  -0.052  -0.316
    1UNL    H10   44   0.234  -0.023  -0.092
    1UNL    H11   45   0.347  -0.005   0.092
    1UNL    H12   46   0.558   0.239  -0.161
    1UNL    H13   47   0.458   0.283  -0.027
    1UNL    H14   48   0.550   0.135   0.001
    1UNL    H15   49   0.334   0.319  -0.216
    1UNL    H16   50   0.172   0.184  -0.380
    1UNL    H17   51   0.123   0.100  -0.233
    1UNL    H18   52  -0.015   0.378  -0.073
    1UNL    H19   53   0.115   0.366   0.164
    1UNL    H20   54   0.285   0.217   0.206
    1UNL    H21   55   0.167   0.182   0.333
    1UNL    H22   56   0.079   0.024   0.159
    1UNL    H23   57  -0.114   0.337   0.175
    1UNL    H24   58  -0.064   0.103   0.325
    1UNL    H25   59  -0.242   0.149   0.102
    1UNL    H26   60  -0.135  -0.169   0.049
    1UNL    H27   61  -0.340  -0.185  -0.154
    1UNL    H28   62  -0.524  -0.021  -0.166
    1UNL    H29   63  -0.592  -0.165  -0.062
    1UNL    H30   64  -0.454   0.025   0.093
    1UNL    H31   65  -0.476  -0.312   0.022
    1UNL    H32   66  -0.296  -0.443   0.060
    1UNL    H33   67  -0.312  -0.315   0.247
    1UNL    H34   68  -0.533  -0.130   0.200
    1UNL    H35   69  -0.191  -0.116   0.290
    1UNL    H36   70  -0.381  -0.003   0.338
    1UNL    H37   71  -0.086   0.094  -0.130
    1UNL    H38   72  -0.290   0.154  -0.140
   0.00000   0.00000   0.00000   0.00000   0.00000   0.00000   0.00000   0.00000   0.00000
Generated with MDTraj, t= 48.0
 72
    1UNL     C1    1   0.083  -0.194  -0.273
    1UNL     C2    2   0.179  -0.287  -0.213
    1UNL     C3    3   0.124  -0.426  -0.176
    1UNL     C4    4   0.304  -0.258  -0.180
    1UNL     C5    5   0.367  -0.122  -0.205
    1UNL     C6    6   0.320  -0.019  -0.108
    1UNL     O1    7   0.346  -0.075   0.022
    1UNL     C7    8   0.361   0.122  -0.130
    1UNL     C8    9   0.504   0.168  -0.100
    1UNL     C9   10   0.278   0.200  -0.203
    1UNL    C10   11   0.141   0.174  -0.252
    1UNL     O2   12   0.056   0.288  -0.225
    1UNL    C11   13   0.017   0.294  -0.090
    1UNL     O3   14   0.123   0.254   0.009
    1UNL    C12   15   0.085   0.290   0.146
    1UNL    C13   16   0.178   0.214   0.246
    1UNL     O4   17   0.170   0.074   0.210
    1UNL    C14   18  -0.068   0.253   0.182
    1UNL     O5   19  -0.088   0.206   0.308
    1UNL    C15   20  -0.129   0.155   0.076
    1UNL     O6   21  -0.072   0.019   0.088
    1UNL    C16   22  -0.170  -0.080   0.064
    1UNL     O7   23  -0.262  -0.049  -0.041
    1UNL    C17   24  -0.363  -0.150  -0.068
    1UNL    C18   25  -0.501  -0.088  -0.072
    1UNL     O8   26  -0.535  -0.029   0.052
    1UNL    C19   27  -0.346  -0.271   0.024
    1UNL     O9   28  -0.234  -0.340  -0.021
    1UNL    C20   29  -0.331  -0.236   0.182
    1UNL    O10   30  -0.465  -0.222   0.229
    1UNL    C21   31  -0.245  -0.114   0.198
    1UNL    O11   32  -0.311  -0.001   0.246
    1UNL    C22   33  -0.112   0.210  -0.068
    1UNL    O12   34  -0.226   0.273  -0.118
    1UNL     H1   35   0.030  -0.142  -0.192
    1UNL     H2   36   0.015  -0.240  -0.346
    1UNL     H3   37   0.136  -0.108  -0.321
    1UNL     H4   38   0.197  -0.480  -0.118
    1UNL     H5   39   0.092  -0.474  -0.268
    1UNL     H6   40   0.045  -0.406  -0.104
    1UNL     H7   41   0.360  -0.327  -0.116
    1UNL     H8   42   0.475  -0.128  -0.192
    1UNL     H9   43   0.357  -0.090  -0.311
    1UNL    H10   44   0.207  -0.027  -0.119
    1UNL    H11   45   0.295  -0.019   0.088
    1UNL    H12   46   0.549   0.211  -0.191
    1UNL    H13   47   0.515   0.229  -0.013
    1UNL    H14   48   0.572   0.086  -0.067
    1UNL    H15   49   0.312   0.297  -0.210
    1UNL    H16   50   0.135   0.182  -0.363
    1UNL    H17   51   0.091   0.088  -0.215
    1UNL    H18   52   0.001   0.396  -0.063
    1UNL    H19   53   0.094   0.399   0.154
    1UNL    H20   54   0.283   0.237   0.246
    1UNL    H21   55   0.137   0.235   0.344
    1UNL    H22   56   0.089   0.060   0.158
    1UNL    H23   57  -0.131   0.344   0.160
    1UNL    H24   58  -0.142   0.121   0.299
    1UNL    H25   59  -0.240   0.153   0.097
    1UNL    H26   60  -0.125  -0.166   0.029
    1UNL    H27   61  -0.340  -0.173  -0.172
    1UNL    H28   62  -0.511  -0.002  -0.156
    1UNL    H29   63  -0.582  -0.161  -0.090
    1UNL    H30   64  -0.460   0.023   0.082
    1UNL    H31   65  -0.433  -0.340   0.002
    1UNL    H32   66  -0.218  -0.419   0.034
    1UNL    H33   67  -0.291  -0.329   0.236
    1UNL    H34   68  -0.512  -0.151   0.178
    1UNL    H35   69  -0.180  -0.139   0.280
    1UNL    H36   70  -0.351  -0.031   0.333
    1UNL    H37   71  -0.102   0.123  -0.135
    1UNL    H38   72  -0.301   0.212  -0.116
   0.00000   0.00000   0.00000   0.00000   0.00000   0.00000   0.00000   0.00000   0.00000
Generated with MDTraj, t= 49.0
 72
    1UNL     C1    1   0.050  -0.233  -0.278
    1UNL     C2    2   0.150  -0.324  -0.206
    1UNL     C3    3   0.090  -0.460  -0.172
    1UNL     C4    4   0.265  -0.279  -0.156
    1UNL     C5    5   0.326  -0.147  -0.194
    1UNL     C6    6   0.289  -0.038  -0.098
    1UNL     O1    7   0.326  -0.083   0.038
    1UNL     C7    8   0.348   0.102  -0.139
    1UNL     C8    9   0.488   0.120  -0.106
    1UNL     C9   10   0.281   0.200  -0.202
    1UNL    C10   11   0.142   0.191  -0.235
    1UNL     O2   12   0.064   0.313  -0.209
    1UNL    C11   13   0.008   0.321  -0.079
    1UNL     O3   14   0.105   0.276   0.018
    1UNL    C12   15   0.063   0.318   0.152
    1UNL    C13   16   0.161   0.256   0.248
    1UNL     O4   17   0.171   0.120   0.231
    1UNL    C14   18  -0.087   0.260   0.183
    1UNL     O5   19  -0.079   0.181   0.298
    1UNL    C15   20  -0.130   0.173   0.066
    1UNL     O6   21  -0.059   0.049   0.060
    1UNL    C16   22  -0.144  -0.066   0.048
    1UNL     O7   23  -0.254  -0.041  -0.037
    1UNL    C17   24  -0.339  -0.154  -0.072
    1UNL    C18   25  -0.479  -0.098  -0.085
    1UNL     O8   26  -0.512  -0.022   0.037
    1UNL    C19   27  -0.313  -0.289   0.008
    1UNL     O9   28  -0.196  -0.346  -0.045
    1UNL    C20   29  -0.297  -0.253   0.159
    1UNL    O10   30  -0.423  -0.237   0.225
    1UNL    C21   31  -0.212  -0.123   0.184
    1UNL    O11   32  -0.290  -0.015   0.244
    1UNL    C22   33  -0.124   0.237  -0.071
    1UNL    O12   34  -0.235   0.317  -0.091
    1UNL     H1   35  -0.027  -0.224  -0.202
    1UNL     H2   36   0.009  -0.287  -0.365
    1UNL     H3   37   0.082  -0.127  -0.297
    1UNL     H4   38   0.168  -0.524  -0.134
    1UNL     H5   39   0.034  -0.508  -0.253
    1UNL     H6   40   0.030  -0.450  -0.081
    1UNL     H7   41   0.324  -0.340  -0.087
    1UNL     H8   42   0.435  -0.157  -0.189
    1UNL     H9   43   0.296  -0.123  -0.297
    1UNL    H10   44   0.174  -0.043  -0.100
    1UNL    H11   45   0.272  -0.027   0.096
    1UNL    H12   46   0.553   0.131  -0.194
    1UNL    H13   47   0.511   0.188  -0.028
    1UNL    H14   48   0.526   0.031  -0.053
    1UNL    H15   49   0.335   0.300  -0.218
    1UNL    H16   50   0.142   0.165  -0.343
    1UNL    H17   51   0.092   0.125  -0.169
    1UNL    H18   52  -0.016   0.421  -0.042
    1UNL    H19   53   0.073   0.425   0.152
    1UNL    H20   54   0.256   0.308   0.237
    1UNL    H21   55   0.123   0.264   0.351
    1UNL    H22   56   0.095   0.087   0.173
    1UNL    H23   57  -0.148   0.353   0.216
    1UNL    H24   58  -0.146   0.109   0.297
    1UNL    H25   59  -0.233   0.146   0.109
    1UNL    H26   60  -0.088  -0.133  -0.006
    1UNL    H27   61  -0.305  -0.183  -0.174
    1UNL    H28   62  -0.499  -0.018  -0.173
    1UNL    H29   63  -0.556  -0.173  -0.100
    1UNL    H30   64  -0.427   0.006   0.077
    1UNL    H31   65  -0.392  -0.367  -0.002
    1UNL    H32   66  -0.164  -0.410   0.018
    1UNL    H33   67  -0.247  -0.340   0.215
    1UNL    H34   68  -0.471  -0.161   0.191
    1UNL    H35   69  -0.132  -0.130   0.260
    1UNL    H36   70  -0.360  -0.054   0.300
    1UNL    H37   71  -0.122   0.157  -0.146
    1UNL    H38   72  -0.319   0.268  -0.076
   0.00000   0.00000   0.00000   0.00000   0.00000   0.00000   0.00000   0.00000   0.00000
Generated with MDTraj, t= 50.0
 72
    1UNL     C1    1   0.025  -0.262  -0.279
    1UNL     C2    2   0.118  -0.343  -0.192
    1UNL     C3    3   0.065  -0.474  -0.147
    1UNL     C4    4   0.234  -0.297  -0.146
    1UNL     C5    5   0.287  -0.157  -0.178
    1UNL     C6    6   0.247  -0.046  -0.083
    1UNL     O1    7   0.293  -0.088   0.049
    1UNL     C7    8   0.317   0.080  -0.110
    1UNL     C8    9   0.463   0.083  -0.090
    1UNL     C9   10   0.258   0.179  -0.184
    1UNL    C10   11   0.112   0.184  -0.205
    1UNL     O2   12   0.053   0.309  -0.208
    1UNL    C11   13   0.004   0.343  -0.081
    1UNL     O3   14   0.106   0.315   0.021
    1UNL    C12   15   0.065   0.336   0.162
    1UNL    C13   16   0.165   0.267   0.252
    1UNL     O4   17   0.181   0.141   0.209
    1UNL    C14   18  -0.077   0.270   0.185
    1UNL     O5   19  -0.080   0.195   0.306
    1UNL    C15   20  -0.126   0.183   0.062
    1UNL     O6   21  -0.050   0.059   0.046
    1UNL    C16   22  -0.123  -0.057   0.026
    1UNL     O7   23  -0.233  -0.037  -0.058
    1UNL    C17   24  -0.313  -0.151  -0.095
    1UNL    C18   25  -0.455  -0.111  -0.085
    1UNL     O8   26  -0.479  -0.052   0.040
    1UNL    C19   27  -0.274  -0.282  -0.010
    1UNL     O9   28  -0.174  -0.362  -0.073
    1UNL    C20   29  -0.254  -0.251   0.145
    1UNL    O10   30  -0.383  -0.243   0.210
    1UNL    C21   31  -0.179  -0.113   0.164
    1UNL    O11   32  -0.273  -0.022   0.220
    1UNL    C22   33  -0.135   0.268  -0.065
    1UNL    O12   34  -0.243   0.357  -0.057
    1UNL     H1   35  -0.078  -0.299  -0.266
    1UNL     H2   36   0.047  -0.264  -0.388
    1UNL     H3   37   0.015  -0.161  -0.238
    1UNL     H4   38   0.123  -0.554  -0.191
    1UNL     H5   39  -0.039  -0.502  -0.163
    1UNL     H6   40   0.088  -0.494  -0.042
    1UNL     H7   41   0.300  -0.364  -0.097
    1UNL     H8   42   0.397  -0.161  -0.174
    1UNL     H9   43   0.252  -0.126  -0.276
    1UNL    H10   44   0.133  -0.040  -0.070
    1UNL    H11   45   0.258  -0.019   0.117
    1UNL    H12   46   0.513   0.047  -0.179
    1UNL    H13   47   0.495   0.178  -0.051
    1UNL    H14   48   0.491   0.023  -0.004
    1UNL    H15   49   0.317   0.260  -0.207
    1UNL    H16   50   0.091   0.135  -0.302
    1UNL    H17   51   0.069   0.138  -0.121
    1UNL    H18   52   0.000   0.453  -0.080
    1UNL    H19   53   0.050   0.435   0.192
    1UNL    H20   54   0.268   0.306   0.243
    1UNL    H21   55   0.129   0.271   0.357
    1UNL    H22   56   0.094   0.119   0.165
    1UNL    H23   57  -0.154   0.356   0.183
    1UNL    H24   58  -0.139   0.116   0.284
    1UNL    H25   59  -0.233   0.151   0.086
    1UNL    H26   60  -0.071  -0.133  -0.020
    1UNL    H27   61  -0.303  -0.178  -0.206
    1UNL    H28   62  -0.478  -0.026  -0.164
    1UNL    H29   63  -0.528  -0.188  -0.106
    1UNL    H30   64  -0.402   0.012   0.065
    1UNL    H31   65  -0.353  -0.358  -0.008
    1UNL    H32   66  -0.131  -0.418  -0.004
    1UNL    H33   67  -0.191  -0.337   0.188
    1UNL    H34   68  -0.446  -0.197   0.148
    1UNL    H35   69  -0.093  -0.129   0.238
    1UNL    H36   70  -0.347  -0.074   0.259
    1UNL    H37   71  -0.148   0.211  -0.159
    1UNL    H38   72  -0.335   0.317  -0.049
   0.00000   0.00000   0.00000   0.00000   0.00000   0.00000   0.00000   0.00000   0.00000
Generated with MDTraj, t= 51.0
 72
    1UNL     C1    1   0.021  -0.301  -0.291
    1UNL     C2    2   0.106  -0.372  -0.197
    1UNL     C3    3   0.070  -0.519  -0.161
    1UNL     C4    4   0.217  -0.315  -0.152
    1UNL     C5    5   0.272  -0.170  -0.172
    1UNL     C6    6   0.239  -0.058  -0.071
    1UNL     O1    7   0.266  -0.092   0.069
    1UNL     C7    8   0.295   0.073  -0.092
    1UNL     C8    9   0.439   0.085  -0.060
    1UNL     C9   10   0.232   0.174  -0.158
    1UNL    C10   11   0.094   0.169  -0.214
    1UNL     O2   12   0.032   0.289  -0.214
    1UNL    C11   13  -0.001   0.340  -0.084
    1UNL     O3   14   0.101   0.317   0.015
    1UNL    C12   15   0.063   0.344   0.150
    1UNL    C13   16   0.175   0.282   0.242
    1UNL     O4   17   0.186   0.142   0.205
    1UNL    C14   18  -0.077   0.279   0.191
    1UNL     O5   19  -0.074   0.197   0.308
    1UNL    C15   20  -0.129   0.186   0.071
    1UNL     O6   21  -0.043   0.072   0.044
    1UNL    C16   22  -0.115  -0.044   0.023
    1UNL     O7   23  -0.222  -0.019  -0.066
    1UNL    C17   24  -0.295  -0.134  -0.106
    1UNL    C18   25  -0.436  -0.091  -0.109
    1UNL     O8   26  -0.483  -0.075   0.025
    1UNL    C19   27  -0.264  -0.263  -0.017
    1UNL     O9   28  -0.166  -0.337  -0.084
    1UNL    C20   29  -0.225  -0.239   0.134
    1UNL    O10   30  -0.331  -0.257   0.221
    1UNL    C21   31  -0.171  -0.101   0.154
    1UNL    O11   32  -0.268  -0.026   0.221
    1UNL    C22   33  -0.145   0.283  -0.047
    1UNL    O12   34  -0.241   0.394  -0.036
    1UNL     H1   35  -0.078  -0.340  -0.321
    1UNL     H2   36   0.072  -0.270  -0.384
    1UNL     H3   37  -0.009  -0.209  -0.242
    1UNL     H4   38   0.152  -0.586  -0.190
    1UNL     H5   39  -0.016  -0.547  -0.221
    1UNL     H6   40   0.048  -0.540  -0.055
    1UNL     H7   41   0.284  -0.386  -0.098
    1UNL     H8   42   0.383  -0.170  -0.175
    1UNL     H9   43   0.240  -0.131  -0.268
    1UNL    H10   44   0.126  -0.044  -0.066
    1UNL    H11   45   0.250  -0.012   0.120
    1UNL    H12   46   0.490   0.074  -0.154
    1UNL    H13   47   0.446   0.179  -0.004
    1UNL    H14   48   0.468   0.010   0.011
    1UNL    H15   49   0.290   0.268  -0.157
    1UNL    H16   50   0.102   0.139  -0.321
    1UNL    H17   51   0.035   0.107  -0.152
    1UNL    H18   52  -0.011   0.450  -0.096
    1UNL    H19   53   0.049   0.445   0.171
    1UNL    H20   54   0.261   0.350   0.224
    1UNL    H21   55   0.145   0.285   0.350
    1UNL    H22   56   0.101   0.114   0.169
    1UNL    H23   57  -0.151   0.363   0.207
    1UNL    H24   58  -0.144   0.132   0.309
    1UNL    H25   59  -0.226   0.136   0.101
    1UNL    H26   60  -0.055  -0.119  -0.015
    1UNL    H27   61  -0.269  -0.169  -0.214
    1UNL    H28   62  -0.441   0.007  -0.169
    1UNL    H29   63  -0.500  -0.162  -0.161
    1UNL    H30   64  -0.417  -0.037   0.090
    1UNL    H31   65  -0.346  -0.330   0.002
    1UNL    H32   66  -0.118  -0.398  -0.018
    1UNL    H33   67  -0.144  -0.311   0.167
    1UNL    H34   68  -0.420  -0.255   0.181
    1UNL    H35   69  -0.075  -0.106   0.220
    1UNL    H36   70  -0.286  -0.059   0.311
    1UNL    H37   71  -0.186   0.219  -0.128
    1UNL    H38   72  -0.328   0.352  -0.012
   0.00000   0.00000   0.00000   0.00000   0.00000   0.00000   0.00000   0.00000   0.00000
Generated with MDTraj, t= 52.0
 72
    1UNL     C1    1   0.065  -0.320  -0.334
    1UNL     C2    2   0.135  -0.379  -0.207
    1UNL     C3    3   0.107  -0.521  -0.184
    1UNL     C4    4   0.233  -0.315  -0.147
    1UNL     C5    5   0.269  -0.180  -0.174
    1UNL     C6    6   0.227  -0.081  -0.070
    1UNL     O1    7   0.260  -0.120   0.066
    1UNL     C7    8   0.291   0.060  -0.096
    1UNL     C8    9   0.420   0.084  -0.026
    1UNL     C9   10   0.222   0.159  -0.164
    1UNL    C10   11   0.086   0.157  -0.223
    1UNL     O2   12   0.023   0.286  -0.222
    1UNL    C11   13   0.000   0.341  -0.084
    1UNL     O3   14   0.105   0.318   0.010
    1UNL    C12   15   0.070   0.353   0.147
    1UNL    C13   16   0.187   0.304   0.233
    1UNL     O4   17   0.193   0.160   0.221
    1UNL    C14   18  -0.069   0.294   0.195
    1UNL     O5   19  -0.056   0.214   0.314
    1UNL    C15   20  -0.129   0.202   0.077
    1UNL     O6   21  -0.050   0.090   0.050
    1UNL    C16   22  -0.129  -0.027   0.035
    1UNL     O7   23  -0.245  -0.012  -0.052
    1UNL    C17   24  -0.311  -0.132  -0.098
    1UNL    C18   25  -0.461  -0.107  -0.094
    1UNL     O8   26  -0.497  -0.078   0.042
    1UNL    C19   27  -0.264  -0.263  -0.029
    1UNL     O9   28  -0.161  -0.331  -0.096
    1UNL    C20   29  -0.238  -0.239   0.127
    1UNL    O10   30  -0.348  -0.261   0.210
    1UNL    C21   31  -0.174  -0.099   0.163
    1UNL    O11   32  -0.277  -0.028   0.241
    1UNL    C22   33  -0.139   0.281  -0.046
    1UNL    O12   34  -0.227   0.395  -0.034
    1UNL     H1   35  -0.032  -0.373  -0.343
    1UNL     H2   36   0.123  -0.346  -0.423
    1UNL     H3   37   0.041  -0.213  -0.338
    1UNL     H4   38   0.200  -0.579  -0.186
    1UNL     H5   39   0.039  -0.543  -0.267
    1UNL     H6   40   0.053  -0.534  -0.090
    1UNL     H7   41   0.295  -0.369  -0.084
    1UNL     H8   42   0.378  -0.174  -0.188
    1UNL     H9   43   0.229  -0.150  -0.269
    1UNL    H10   44   0.113  -0.080  -0.076
    1UNL    H11   45   0.237  -0.048   0.126
    1UNL    H12   46   0.480   0.148  -0.086
    1UNL    H13   47   0.389   0.126   0.070
    1UNL    H14   48   0.477  -0.003  -0.004
    1UNL    H15   49   0.278   0.253  -0.167
    1UNL    H16   50   0.103   0.140  -0.333
    1UNL    H17   51   0.022   0.085  -0.179
    1UNL    H18   52  -0.022   0.450  -0.100
    1UNL    H19   53   0.061   0.459   0.144
    1UNL    H20   54   0.278   0.352   0.195
    1UNL    H21   55   0.169   0.338   0.337
    1UNL    H22   56   0.129   0.143   0.148
    1UNL    H23   57  -0.133   0.383   0.209
    1UNL    H24   58  -0.117   0.134   0.315
    1UNL    H25   59  -0.230   0.165   0.109
    1UNL    H26   60  -0.069  -0.094  -0.013
    1UNL    H27   61  -0.280  -0.151  -0.208
    1UNL    H28   62  -0.489  -0.019  -0.157
    1UNL    H29   63  -0.525  -0.190  -0.132
    1UNL    H30   64  -0.425  -0.028   0.086
    1UNL    H31   65  -0.341  -0.337  -0.023
    1UNL    H32   66  -0.116  -0.399  -0.040
    1UNL    H33   67  -0.162  -0.314   0.159
    1UNL    H34   68  -0.413  -0.191   0.180
    1UNL    H35   69  -0.075  -0.113   0.219
    1UNL    H36   70  -0.294  -0.079   0.324
    1UNL    H37   71  -0.176   0.224  -0.135
    1UNL    H38   72  -0.317   0.369  -0.011
   0.00000   0.00000   0.00000   0.00000   0.00000   0.00000   0.00000   0.00000   0.00000
Generated with MDTraj, t= 53.0
 72
    1UNL     C1    1   0.117  -0.323  -0.353
    1UNL     C2    2   0.159  -0.378  -0.225
    1UNL     C3    3   0.133  -0.524  -0.194
    1UNL     C4    4   0.239  -0.310  -0.146
    1UNL     C5    5   0.303  -0.182  -0.177
    1UNL     C6    6   0.239  -0.075  -0.082
    1UNL     O1    7   0.230  -0.120   0.056
    1UNL     C7    8   0.303   0.058  -0.097
    1UNL     C8    9   0.429   0.086  -0.029
    1UNL     C9   10   0.238   0.156  -0.165
    1UNL    C10   11   0.094   0.150  -0.201
    1UNL     O2   12   0.040   0.280  -0.222
    1UNL    C11   13  -0.008   0.331  -0.092
    1UNL     O3   14   0.094   0.320   0.005
    1UNL    C12   15   0.070   0.348   0.146
    1UNL    C13   16   0.183   0.283   0.221
    1UNL     O4   17   0.180   0.153   0.189
    1UNL    C14   18  -0.068   0.282   0.189
    1UNL     O5   19  -0.062   0.197   0.302
    1UNL    C15   20  -0.126   0.195   0.070
    1UNL     O6   21  -0.053   0.076   0.059
    1UNL    C16   22  -0.144  -0.030   0.045
    1UNL     O7   23  -0.261   0.000  -0.036
    1UNL    C17   24  -0.330  -0.119  -0.077
    1UNL    C18   25  -0.480  -0.105  -0.049
    1UNL     O8   26  -0.508  -0.042   0.076
    1UNL    C19   27  -0.262  -0.253  -0.026
    1UNL     O9   28  -0.139  -0.277  -0.084
    1UNL    C20   29  -0.254  -0.248   0.134
    1UNL    O10   30  -0.384  -0.256   0.184
    1UNL    C21   31  -0.182  -0.106   0.175
    1UNL    O11   32  -0.264  -0.019   0.258
    1UNL    C22   33  -0.145   0.275  -0.060
    1UNL    O12   34  -0.243   0.380  -0.047
    1UNL     H1   35   0.079  -0.406  -0.414
    1UNL     H2   36   0.208  -0.280  -0.395
    1UNL     H3   37   0.043  -0.240  -0.344
    1UNL     H4   38   0.214  -0.595  -0.218
    1UNL     H5   39   0.042  -0.556  -0.248
    1UNL     H6   40   0.101  -0.546  -0.092
    1UNL     H7   41   0.247  -0.357  -0.044
    1UNL     H8   42   0.412  -0.195  -0.164
    1UNL     H9   43   0.295  -0.160  -0.282
    1UNL    H10   44   0.131  -0.073  -0.121
    1UNL    H11   45   0.193  -0.051   0.116
    1UNL    H12   46   0.501   0.135  -0.088
    1UNL    H13   47   0.410   0.140   0.064
    1UNL    H14   48   0.483   0.002   0.006
    1UNL    H15   49   0.303   0.238  -0.166
    1UNL    H16   50   0.087   0.109  -0.307
    1UNL    H17   51   0.029   0.096  -0.134
    1UNL    H18   52  -0.018   0.443  -0.107
    1UNL    H19   53   0.068   0.455   0.161
    1UNL    H20   54   0.279   0.321   0.190
    1UNL    H21   55   0.163   0.300   0.328
    1UNL    H22   56   0.085   0.126   0.174
    1UNL    H23   57  -0.124   0.372   0.204
    1UNL    H24   58  -0.140   0.139   0.296
    1UNL    H25   59  -0.230   0.168   0.097
    1UNL    H26   60  -0.092  -0.094  -0.017
    1UNL    H27   61  -0.311  -0.120  -0.191
    1UNL    H28   62  -0.533  -0.048  -0.123
    1UNL    H29   63  -0.535  -0.205  -0.048
    1UNL    H30   64  -0.427   0.004   0.107
    1UNL    H31   65  -0.328  -0.335  -0.056
    1UNL    H32   66  -0.094  -0.359  -0.065
    1UNL    H33   67  -0.205  -0.334   0.181
    1UNL    H34   68  -0.432  -0.172   0.177
    1UNL    H35   69  -0.087  -0.136   0.225
    1UNL    H36   70  -0.305  -0.083   0.320
    1UNL    H37   71  -0.171   0.202  -0.140
    1UNL    H38   72  -0.328   0.337  -0.032
   0.00000   0.00000   0.00000   0.00000   0.00000   0.00000   0.00000   0.00000   0.00000
Generated with MDTraj, t= 54.0
 72
    1UNL     C1    1   0.169  -0.320  -0.369
    1UNL     C2    2   0.192  -0.387  -0.240
    1UNL     C3    3   0.130  -0.513  -0.208
    1UNL     C4    4   0.271  -0.332  -0.149
    1UNL     C5    5   0.337  -0.197  -0.154
    1UNL     C6    6   0.246  -0.087  -0.084
    1UNL     O1    7   0.245  -0.132   0.053
    1UNL     C7    8   0.302   0.054  -0.103
    1UNL     C8    9   0.441   0.088  -0.068
    1UNL     C9   10   0.225   0.156  -0.151
    1UNL    C10   11   0.090   0.162  -0.209
    1UNL     O2   12   0.049   0.299  -0.208
    1UNL    C11   13   0.001   0.336  -0.081
    1UNL     O3   14   0.092   0.297   0.014
    1UNL    C12   15   0.054   0.339   0.141
    1UNL    C13   16   0.173   0.275   0.226
    1UNL     O4   17   0.168   0.135   0.210
    1UNL    C14   18  -0.088   0.287   0.183
    1UNL     O5   19  -0.080   0.222   0.307
    1UNL    C15   20  -0.146   0.196   0.077
    1UNL     O6   21  -0.062   0.083   0.057
    1UNL    C16   22  -0.138  -0.035   0.032
    1UNL     O7   23  -0.251  -0.004  -0.050
    1UNL    C17   24  -0.344  -0.113  -0.076
    1UNL    C18   25  -0.485  -0.070  -0.033
    1UNL     O8   26  -0.506  -0.015   0.096
    1UNL    C19   27  -0.294  -0.248  -0.012
    1UNL     O9   28  -0.188  -0.294  -0.094
    1UNL    C20   29  -0.257  -0.239   0.142
    1UNL    O10   30  -0.364  -0.262   0.219
    1UNL    C21   31  -0.180  -0.104   0.166
    1UNL    O11   32  -0.251  -0.014   0.243
    1UNL    C22   33  -0.147   0.273  -0.060
    1UNL    O12   34  -0.259   0.358  -0.072
    1UNL     H1   35   0.089  -0.363  -0.427
    1UNL     H2   36   0.257  -0.319  -0.435
    1UNL     H3   37   0.138  -0.212  -0.370
    1UNL     H4   38   0.171  -0.598  -0.265
    1UNL     H5   39   0.019  -0.508  -0.216
    1UNL     H6   40   0.141  -0.537  -0.102
    1UNL     H7   41   0.268  -0.373  -0.054
    1UNL     H8   42   0.440  -0.191  -0.117
    1UNL     H9   43   0.344  -0.166  -0.256
    1UNL    H10   44   0.141  -0.089  -0.130
    1UNL    H11   45   0.211  -0.052   0.099
    1UNL    H12   46   0.509   0.063  -0.146
    1UNL    H13   47   0.449   0.192  -0.036
    1UNL    H14   48   0.468   0.037   0.020
    1UNL    H15   49   0.285   0.254  -0.154
    1UNL    H16   50   0.090   0.128  -0.317
    1UNL    H17   51   0.014   0.118  -0.146
    1UNL    H18   52  -0.001   0.448  -0.069
    1UNL    H19   53   0.052   0.450   0.150
    1UNL    H20   54   0.258   0.319   0.176
    1UNL    H21   55   0.178   0.294   0.333
    1UNL    H22   56   0.079   0.112   0.170
    1UNL    H23   57  -0.149   0.369   0.207
    1UNL    H24   58  -0.139   0.145   0.307
    1UNL    H25   59  -0.247   0.175   0.111
    1UNL    H26   60  -0.079  -0.100  -0.023
    1UNL    H27   61  -0.331  -0.116  -0.189
    1UNL    H28   62  -0.531   0.001  -0.095
    1UNL    H29   63  -0.554  -0.161  -0.044
    1UNL    H30   64  -0.416   0.022   0.133
    1UNL    H31   65  -0.375  -0.325  -0.011
    1UNL    H32   66  -0.165  -0.387  -0.081
    1UNL    H33   67  -0.192  -0.321   0.171
    1UNL    H34   68  -0.433  -0.195   0.192
    1UNL    H35   69  -0.084  -0.119   0.216
    1UNL    H36   70  -0.303  -0.064   0.309
    1UNL    H37   71  -0.163   0.194  -0.136
    1UNL    H38   72  -0.346   0.311  -0.064
   0.00000   0.00000   0.00000   0.00000   0.00000   0.00000   0.00000   0.00000   0.00000
Generated with MDTraj, t= 55.0
 72
    1UNL     C1    1   0.192  -0.313  -0.391
    1UNL     C2    2   0.210  -0.376  -0.252
    1UNL     C3    3   0.143  -0.510  -0.223
    1UNL     C4    4   0.265  -0.317  -0.148
    1UNL     C5    5   0.345  -0.192  -0.161
    1UNL     C6    6   0.262  -0.077  -0.097
    1UNL     O1    7   0.244  -0.088   0.049
    1UNL     C7    8   0.330   0.053  -0.124
    1UNL     C8    9   0.468   0.093  -0.080
    1UNL     C9   10   0.255   0.157  -0.175
    1UNL    C10   11   0.116   0.136  -0.203
    1UNL     O2   12   0.050   0.260  -0.216
    1UNL    C11   13   0.011   0.321  -0.092
    1UNL     O3   14   0.097   0.302   0.018
    1UNL    C12   15   0.047   0.343   0.149
    1UNL    C13   16   0.155   0.274   0.245
    1UNL     O4   17   0.153   0.139   0.223
    1UNL    C14   18  -0.098   0.292   0.179
    1UNL     O5   19  -0.116   0.244   0.307
    1UNL    C15   20  -0.142   0.187   0.073
    1UNL     O6   21  -0.058   0.073   0.064
    1UNL    C16   22  -0.138  -0.039   0.030
    1UNL     O7   23  -0.263  -0.013  -0.040
    1UNL    C17   24  -0.353  -0.116  -0.072
    1UNL    C18   25  -0.495  -0.062  -0.039
    1UNL     O8   26  -0.503  -0.022   0.094
    1UNL    C19   27  -0.330  -0.244  -0.001
    1UNL     O9   28  -0.252  -0.324  -0.088
    1UNL    C20   29  -0.275  -0.241   0.146
    1UNL    O10   30  -0.367  -0.261   0.246
    1UNL    C21   31  -0.174  -0.111   0.165
    1UNL    O11   32  -0.238  -0.019   0.253
    1UNL    C22   33  -0.141   0.269  -0.065
    1UNL    O12   34  -0.227   0.375  -0.048
    1UNL     H1   35   0.117  -0.365  -0.450
    1UNL     H2   36   0.285  -0.301  -0.451
    1UNL     H3   37   0.154  -0.210  -0.383
    1UNL     H4   38   0.152  -0.565  -0.317
    1UNL     H5   39   0.035  -0.494  -0.199
    1UNL     H6   40   0.187  -0.563  -0.139
    1UNL     H7   41   0.247  -0.359  -0.046
    1UNL     H8   42   0.435  -0.196  -0.100
    1UNL     H9   43   0.373  -0.167  -0.264
    1UNL    H10   44   0.157  -0.082  -0.140
    1UNL    H11   45   0.197  -0.007   0.076
    1UNL    H12   46   0.538   0.042  -0.145
    1UNL    H13   47   0.480   0.198  -0.071
    1UNL    H14   48   0.475   0.056   0.020
    1UNL    H15   49   0.298   0.250  -0.189
    1UNL    H16   50   0.102   0.095  -0.309
    1UNL    H17   51   0.064   0.087  -0.122
    1UNL    H18   52   0.015   0.431  -0.104
    1UNL    H19   53   0.043   0.456   0.156
    1UNL    H20   54   0.259   0.299   0.228
    1UNL    H21   55   0.122   0.301   0.346
    1UNL    H22   56   0.065   0.115   0.191
    1UNL    H23   57  -0.168   0.370   0.169
    1UNL    H24   58  -0.185   0.169   0.305
    1UNL    H25   59  -0.242   0.167   0.104
    1UNL    H26   60  -0.090  -0.108  -0.030
    1UNL    H27   61  -0.345  -0.116  -0.182
    1UNL    H28   62  -0.507   0.025  -0.094
    1UNL    H29   63  -0.580  -0.132  -0.070
    1UNL    H30   64  -0.412  -0.011   0.130
    1UNL    H31   65  -0.431  -0.296   0.006
    1UNL    H32   66  -0.262  -0.422  -0.063
    1UNL    H33   67  -0.216  -0.329   0.154
    1UNL    H34   68  -0.443  -0.200   0.229
    1UNL    H35   69  -0.082  -0.139   0.208
    1UNL    H36   70  -0.272  -0.073   0.328
    1UNL    H37   71  -0.170   0.203  -0.147
    1UNL    H38   72  -0.324   0.353  -0.036
   0.00000   0.00000   0.00000   0.00000   0.00000   0.00000   0.00000   0.00000   0.00000
Generated with MDTraj, t= 56.0
 72
    1UNL     C1    1   0.226  -0.295  -0.391
    1UNL     C2    2   0.223  -0.367  -0.257
    1UNL     C3    3   0.135  -0.486  -0.231
    1UNL     C4    4   0.293  -0.320  -0.156
    1UNL     C5    5   0.353  -0.183  -0.155
    1UNL     C6    6   0.281  -0.077  -0.081
    1UNL     O1    7   0.286  -0.086   0.056
    1UNL     C7    8   0.333   0.054  -0.122
    1UNL     C8    9   0.481   0.071  -0.097
    1UNL     C9   10   0.254   0.158  -0.167
    1UNL    C10   11   0.118   0.149  -0.219
    1UNL     O2   12   0.065   0.284  -0.226
    1UNL    C11   13   0.006   0.325  -0.096
    1UNL     O3   14   0.093   0.298   0.013
    1UNL    C12   15   0.060   0.332   0.150
    1UNL    C13   16   0.156   0.264   0.249
    1UNL     O4   17   0.157   0.133   0.225
    1UNL    C14   18  -0.086   0.280   0.185
    1UNL     O5   19  -0.100   0.195   0.297
    1UNL    C15   20  -0.147   0.201   0.060
    1UNL     O6   21  -0.076   0.073   0.064
    1UNL    C16   22  -0.159  -0.038   0.041
    1UNL     O7   23  -0.277  -0.007  -0.039
    1UNL    C17   24  -0.368  -0.116  -0.062
    1UNL    C18   25  -0.514  -0.067  -0.023
    1UNL     O8   26  -0.510  -0.023   0.110
    1UNL    C19   27  -0.341  -0.247   0.013
    1UNL     O9   28  -0.271  -0.338  -0.075
    1UNL    C20   29  -0.278  -0.242   0.153
    1UNL    O10   30  -0.374  -0.256   0.251
    1UNL    C21   31  -0.200  -0.105   0.173
    1UNL    O11   32  -0.274  -0.008   0.248
    1UNL    C22   33  -0.139   0.276  -0.076
    1UNL    O12   34  -0.238   0.373  -0.084
    1UNL     H1   35   0.167  -0.359  -0.460
    1UNL     H2   36   0.332  -0.277  -0.421
    1UNL     H3   37   0.179  -0.199  -0.373
    1UNL     H4   38   0.073  -0.500  -0.319
    1UNL     H5   39   0.071  -0.471  -0.141
    1UNL     H6   40   0.196  -0.576  -0.212
    1UNL     H7   41   0.277  -0.373  -0.065
    1UNL     H8   42   0.454  -0.192  -0.115
    1UNL     H9   43   0.348  -0.148  -0.259
    1UNL    H10   44   0.171  -0.088  -0.098
    1UNL    H11   45   0.236  -0.007   0.100
    1UNL    H12   46   0.543   0.054  -0.185
    1UNL    H13   47   0.514   0.153  -0.041
    1UNL    H14   48   0.507  -0.010  -0.031
    1UNL    H15   49   0.315   0.252  -0.169
    1UNL    H16   50   0.128   0.109  -0.325
    1UNL    H17   51   0.049   0.092  -0.161
    1UNL    H18   52  -0.005   0.434  -0.092
    1UNL    H19   53   0.083   0.445   0.150
    1UNL    H20   54   0.256   0.305   0.226
    1UNL    H21   55   0.133   0.278   0.357
    1UNL    H22   56   0.072   0.112   0.177
    1UNL    H23   57  -0.143   0.367   0.205
    1UNL    H24   58  -0.122   0.105   0.269
    1UNL    H25   59  -0.250   0.191   0.086
    1UNL    H26   60  -0.105  -0.102  -0.021
    1UNL    H27   61  -0.364  -0.133  -0.168
    1UNL    H28   62  -0.552   0.004  -0.085
    1UNL    H29   63  -0.584  -0.157  -0.028
    1UNL    H30   64  -0.422   0.014   0.125
    1UNL    H31   65  -0.440  -0.302   0.028
    1UNL    H32   66  -0.273  -0.435  -0.043
    1UNL    H33   67  -0.216  -0.327   0.170
    1UNL    H34   68  -0.437  -0.183   0.244
    1UNL    H35   69  -0.114  -0.117   0.232
    1UNL    H36   70  -0.323  -0.053   0.319
    1UNL    H37   71  -0.155   0.197  -0.149
    1UNL    H38   72  -0.330   0.335  -0.078
   0.00000   0.00000   0.00000   0.00000   0.00000   0.00000   0.00000   0.00000   0.00000
Generated with MDTraj, t= 57.0
 72
    1UNL     C1    1   0.227  -0.291  -0.395
    1UNL     C2    2   0.210  -0.359  -0.254
    1UNL     C3    3   0.132  -0.483  -0.246
    1UNL     C4    4   0.278  -0.306  -0.153
    1UNL     C5    5   0.359  -0.176  -0.168
    1UNL     C6    6   0.305  -0.062  -0.079
    1UNL     O1    7   0.314  -0.080   0.064
    1UNL     C7    8   0.362   0.076  -0.114
    1UNL     C8    9   0.489   0.119  -0.076
    1UNL     C9   10   0.271   0.166  -0.166
    1UNL    C10   11   0.132   0.147  -0.200
    1UNL     O2   12   0.062   0.271  -0.224
    1UNL    C11   13   0.018   0.328  -0.096
    1UNL     O3   14   0.119   0.307   0.011
    1UNL    C12   15   0.066   0.316   0.140
    1UNL    C13   16   0.170   0.244   0.232
    1UNL     O4   17   0.183   0.107   0.195
    1UNL    C14   18  -0.077   0.268   0.172
    1UNL     O5   19  -0.093   0.197   0.290
    1UNL    C15   20  -0.134   0.184   0.055
    1UNL     O6   21  -0.078   0.055   0.049
    1UNL    C16   22  -0.171  -0.050   0.035
    1UNL     O7   23  -0.292  -0.012  -0.036
    1UNL    C17   24  -0.397  -0.120  -0.049
    1UNL    C18   25  -0.544  -0.079  -0.013
    1UNL     O8   26  -0.568  -0.037   0.117
    1UNL    C19   27  -0.353  -0.255   0.021
    1UNL     O9   28  -0.234  -0.296  -0.057
    1UNL    C20   29  -0.306  -0.237   0.169
    1UNL    O10   30  -0.416  -0.237   0.258
    1UNL    C21   31  -0.215  -0.104   0.172
    1UNL    O11   32  -0.282   0.000   0.245
    1UNL    C22   33  -0.126   0.261  -0.076
    1UNL    O12   34  -0.241   0.342  -0.087
    1UNL     H1   35   0.149  -0.338  -0.461
    1UNL     H2   36   0.325  -0.303  -0.446
    1UNL     H3   37   0.206  -0.184  -0.396
    1UNL     H4   38   0.044  -0.481  -0.311
    1UNL     H5   39   0.097  -0.504  -0.143
    1UNL     H6   40   0.193  -0.572  -0.273
    1UNL     H7   41   0.279  -0.356  -0.057
    1UNL     H8   42   0.456  -0.202  -0.127
    1UNL     H9   43   0.369  -0.144  -0.273
    1UNL    H10   44   0.197  -0.074  -0.095
    1UNL    H11   45   0.278  -0.004   0.109
    1UNL    H12   46   0.559   0.119  -0.159
    1UNL    H13   47   0.488   0.217  -0.038
    1UNL    H14   48   0.532   0.065   0.006
    1UNL    H15   49   0.312   0.267  -0.177
    1UNL    H16   50   0.135   0.110  -0.308
    1UNL    H17   51   0.074   0.085  -0.135
    1UNL    H18   52   0.002   0.434  -0.108
    1UNL    H19   53   0.071   0.426   0.165
    1UNL    H20   54   0.272   0.288   0.218
    1UNL    H21   55   0.136   0.265   0.338
    1UNL    H22   56   0.091   0.078   0.164
    1UNL    H23   57  -0.138   0.359   0.186
    1UNL    H24   58  -0.172   0.136   0.283
    1UNL    H25   59  -0.240   0.180   0.072
    1UNL    H26   60  -0.124  -0.124  -0.022
    1UNL    H27   61  -0.394  -0.142  -0.152
    1UNL    H28   62  -0.569   0.000  -0.072
    1UNL    H29   63  -0.618  -0.160  -0.034
    1UNL    H30   64  -0.476   0.001   0.147
    1UNL    H31   65  -0.423  -0.343   0.015
    1UNL    H32   66  -0.204  -0.387  -0.037
    1UNL    H33   67  -0.254  -0.326   0.201
    1UNL    H34   68  -0.484  -0.170   0.226
    1UNL    H35   69  -0.130  -0.124   0.229
    1UNL    H36   70  -0.321  -0.046   0.325
    1UNL    H37   71  -0.134   0.183  -0.151
    1UNL    H38   72  -0.329   0.300  -0.077
   0.00000   0.00000   0.00000   0.00000   0.00000   0.00000   0.00000   0.00000   0.00000
Generated with MDTraj, t= 58.0
 72
    1UNL     C1    1   0.202  -0.292  -0.405
    1UNL     C2    2   0.220  -0.339  -0.271
    1UNL     C3    3   0.140  -0.460  -0.235
    1UNL     C4    4   0.292  -0.280  -0.175
    1UNL     C5    5   0.349  -0.138  -0.189
    1UNL     C6    6   0.306  -0.048  -0.067
    1UNL     O1    7   0.348  -0.103   0.055
    1UNL     C7    8   0.362   0.085  -0.100
    1UNL     C8    9   0.507   0.130  -0.061
    1UNL     C9   10   0.289   0.172  -0.182
    1UNL    C10   11   0.150   0.141  -0.233
    1UNL     O2   12   0.076   0.260  -0.235
    1UNL    C11   13   0.021   0.297  -0.102
    1UNL     O3   14   0.103   0.248   0.004
    1UNL    C12   15   0.071   0.308   0.127
    1UNL    C13   16   0.171   0.240   0.225
    1UNL     O4   17   0.163   0.099   0.211
    1UNL    C14   18  -0.081   0.281   0.170
    1UNL     O5   19  -0.090   0.200   0.289
    1UNL    C15   20  -0.150   0.194   0.061
    1UNL     O6   21  -0.098   0.066   0.080
    1UNL    C16   22  -0.185  -0.047   0.061
    1UNL     O7   23  -0.296  -0.012  -0.021
    1UNL    C17   24  -0.381  -0.121  -0.051
    1UNL    C18   25  -0.525  -0.077  -0.031
    1UNL     O8   26  -0.542  -0.011   0.092
    1UNL    C19   27  -0.348  -0.252   0.028
    1UNL     O9   28  -0.245  -0.327  -0.044
    1UNL    C20   29  -0.317  -0.237   0.177
    1UNL    O10   30  -0.438  -0.246   0.252
    1UNL    C21   31  -0.233  -0.105   0.201
    1UNL    O11   32  -0.304  -0.006   0.278
    1UNL    C22   33  -0.130   0.251  -0.081
    1UNL    O12   34  -0.231   0.354  -0.097
    1UNL     H1   35   0.162  -0.368  -0.477
    1UNL     H2   36   0.291  -0.254  -0.455
    1UNL     H3   37   0.130  -0.208  -0.413
    1UNL     H4   38   0.034  -0.446  -0.257
    1UNL     H5   39   0.149  -0.483  -0.128
    1UNL     H6   40   0.172  -0.553  -0.288
    1UNL     H7   41   0.319  -0.345  -0.090
    1UNL     H8   42   0.455  -0.129  -0.211
    1UNL     H9   43   0.299  -0.095  -0.278
    1UNL    H10   44   0.198  -0.059  -0.059
    1UNL    H11   45   0.321  -0.033   0.124
    1UNL    H12   46   0.568   0.155  -0.147
    1UNL    H13   47   0.499   0.220  -0.006
    1UNL    H14   48   0.561   0.069   0.011
    1UNL    H15   49   0.349   0.254  -0.209
    1UNL    H16   50   0.153   0.110  -0.341
    1UNL    H17   51   0.088   0.083  -0.167
    1UNL    H18   52   0.029   0.404  -0.101
    1UNL    H19   53   0.082   0.417   0.110
    1UNL    H20   54   0.271   0.281   0.196
    1UNL    H21   55   0.148   0.264   0.333
    1UNL    H22   56   0.085   0.083   0.152
    1UNL    H23   57  -0.136   0.374   0.201
    1UNL    H24   58  -0.162   0.139   0.276
    1UNL    H25   59  -0.258   0.194   0.081
    1UNL    H26   60  -0.124  -0.122   0.019
    1UNL    H27   61  -0.378  -0.145  -0.153
    1UNL    H28   62  -0.561  -0.018  -0.106
    1UNL    H29   63  -0.594  -0.163  -0.027
    1UNL    H30   64  -0.445   0.003   0.128
    1UNL    H31   65  -0.440  -0.314   0.029
    1UNL    H32   66  -0.238  -0.416  -0.013
    1UNL    H33   67  -0.260  -0.326   0.206
    1UNL    H34   68  -0.511  -0.194   0.213
    1UNL    H35   69  -0.144  -0.126   0.253
    1UNL    H36   70  -0.366  -0.057   0.333
    1UNL    H37   71  -0.149   0.163  -0.143
    1UNL    H38   72  -0.318   0.315  -0.084
   0.00000   0.00000   0.00000   0.00000   0.00000   0.00000   0.00000   0.00000   0.00000
Generated with MDTraj, t= 59.0
 72
    1UNL     C1    1   0.183  -0.275  -0.392
    1UNL     C2    2   0.211  -0.339  -0.261
    1UNL     C3    3   0.152  -0.468  -0.243
    1UNL     C4    4   0.281  -0.275  -0.172
    1UNL     C5    5   0.352  -0.142  -0.190
    1UNL     C6    6   0.305  -0.034  -0.081
    1UNL     O1    7   0.344  -0.073   0.054
    1UNL     C7    8   0.347   0.106  -0.114
    1UNL     C8    9   0.466   0.164  -0.058
    1UNL     C9   10   0.284   0.184  -0.210
    1UNL    C10   11   0.149   0.159  -0.253
    1UNL     O2   12   0.070   0.275  -0.228
    1UNL    C11   13   0.025   0.280  -0.091
    1UNL     O3   14   0.116   0.238   0.009
    1UNL    C12   15   0.091   0.291   0.143
    1UNL    C13   16   0.172   0.209   0.244
    1UNL     O4   17   0.155   0.080   0.228
    1UNL    C14   18  -0.064   0.269   0.169
    1UNL     O5   19  -0.112   0.233   0.300
    1UNL    C15   20  -0.125   0.157   0.067
    1UNL     O6   21  -0.067   0.033   0.077
    1UNL    C16   22  -0.172  -0.065   0.052
    1UNL     O7   23  -0.283  -0.024  -0.027
    1UNL    C17   24  -0.379  -0.132  -0.055
    1UNL    C18   25  -0.524  -0.079  -0.042
    1UNL     O8   26  -0.537  -0.006   0.083
    1UNL    C19   27  -0.358  -0.252   0.034
    1UNL     O9   28  -0.260  -0.334  -0.031
    1UNL    C20   29  -0.328  -0.219   0.181
    1UNL    O10   30  -0.447  -0.200   0.256
    1UNL    C21   31  -0.232  -0.095   0.191
    1UNL    O11   32  -0.288   0.021   0.249
    1UNL    C22   33  -0.117   0.213  -0.075
    1UNL    O12   34  -0.225   0.306  -0.087
    1UNL     H1   35   0.114  -0.340  -0.447
    1UNL     H2   36   0.273  -0.263  -0.454
    1UNL     H3   37   0.129  -0.175  -0.385
    1UNL     H4   38   0.046  -0.452  -0.215
    1UNL     H5   39   0.206  -0.520  -0.163
    1UNL     H6   40   0.156  -0.527  -0.337
    1UNL     H7   41   0.280  -0.323  -0.078
    1UNL     H8   42   0.455  -0.159  -0.166
    1UNL     H9   43   0.351  -0.098  -0.292
    1UNL    H10   44   0.199  -0.028  -0.079
    1UNL    H11   45   0.292  -0.029   0.119
    1UNL    H12   46   0.520   0.206  -0.141
    1UNL    H13   47   0.428   0.243   0.004
    1UNL    H14   48   0.514   0.096   0.011
    1UNL    H15   49   0.336   0.282  -0.238
    1UNL    H16   50   0.135   0.153  -0.365
    1UNL    H17   51   0.092   0.086  -0.195
    1UNL    H18   52   0.004   0.385  -0.075
    1UNL    H19   53   0.118   0.397   0.144
    1UNL    H20   54   0.280   0.221   0.226
    1UNL    H21   55   0.144   0.237   0.347
    1UNL    H22   56   0.079   0.066   0.169
    1UNL    H23   57  -0.109   0.374   0.150
    1UNL    H24   58  -0.175   0.150   0.291
    1UNL    H25   59  -0.236   0.154   0.085
    1UNL    H26   60  -0.118  -0.151   0.019
    1UNL    H27   61  -0.357  -0.158  -0.155
    1UNL    H28   62  -0.536  -0.008  -0.117
    1UNL    H29   63  -0.603  -0.152  -0.056
    1UNL    H30   64  -0.452   0.036   0.107
    1UNL    H31   65  -0.449  -0.311   0.035
    1UNL    H32   66  -0.257  -0.421   0.012
    1UNL    H33   67  -0.270  -0.305   0.222
    1UNL    H34   68  -0.512  -0.147   0.205
    1UNL    H35   69  -0.146  -0.115   0.253
    1UNL    H36   70  -0.341  -0.020   0.322
    1UNL    H37   71  -0.133   0.140  -0.155
    1UNL    H38   72  -0.313   0.263  -0.083
   0.00000   0.00000   0.00000   0.00000   0.00000   0.00000   0.00000   0.00000   0.00000
Generated with MDTraj, t= 60.0
 72
    1UNL     C1    1   0.167  -0.252  -0.378
    1UNL     C2    2   0.202  -0.317  -0.250
    1UNL     C3    3   0.157  -0.455  -0.219
    1UNL     C4    4   0.285  -0.261  -0.166
    1UNL     C5    5   0.351  -0.130  -0.181
    1UNL     C6    6   0.285  -0.026  -0.092
    1UNL     O1    7   0.320  -0.062   0.038
    1UNL     C7    8   0.344   0.121  -0.117
    1UNL     C8    9   0.487   0.141  -0.070
    1UNL     C9   10   0.267   0.214  -0.184
    1UNL    C10   11   0.143   0.184  -0.250
    1UNL     O2   12   0.047   0.289  -0.230
    1UNL    C11   13   0.015   0.294  -0.088
    1UNL     O3   14   0.120   0.253  -0.002
    1UNL    C12   15   0.087   0.282   0.137
    1UNL    C13   16   0.188   0.197   0.226
    1UNL     O4   17   0.146   0.063   0.234
    1UNL    C14   18  -0.063   0.246   0.173
    1UNL     O5   19  -0.075   0.176   0.293
    1UNL    C15   20  -0.130   0.160   0.063
    1UNL     O6   21  -0.078   0.030   0.081
    1UNL    C16   22  -0.166  -0.084   0.071
    1UNL     O7   23  -0.258  -0.051  -0.033
    1UNL    C17   24  -0.369  -0.139  -0.054
    1UNL    C18   25  -0.496  -0.053  -0.059
    1UNL     O8   26  -0.511   0.032   0.055
    1UNL    C19   27  -0.365  -0.261   0.043
    1UNL     O9   28  -0.265  -0.353  -0.001
    1UNL    C20   29  -0.344  -0.219   0.192
    1UNL    O10   30  -0.465  -0.183   0.261
    1UNL    C21   31  -0.235  -0.106   0.208
    1UNL    O11   32  -0.298   0.014   0.250
    1UNL    C22   33  -0.109   0.208  -0.080
    1UNL    O12   34  -0.214   0.281  -0.138
    1UNL     H1   35   0.092  -0.317  -0.425
    1UNL     H2   36   0.260  -0.248  -0.438
    1UNL     H3   37   0.124  -0.150  -0.361
    1UNL     H4   38   0.085  -0.449  -0.135
    1UNL     H5   39   0.239  -0.524  -0.197
    1UNL     H6   40   0.095  -0.495  -0.301
    1UNL     H7   41   0.298  -0.328  -0.077
    1UNL     H8   42   0.454  -0.140  -0.149
    1UNL     H9   43   0.350  -0.098  -0.286
    1UNL    H10   44   0.180  -0.034  -0.104
    1UNL    H11   45   0.244  -0.032   0.103
    1UNL    H12   46   0.554   0.164  -0.150
    1UNL    H13   47   0.494   0.221   0.003
    1UNL    H14   48   0.514   0.058  -0.005
    1UNL    H15   49   0.305   0.307  -0.198
    1UNL    H16   50   0.163   0.197  -0.360
    1UNL    H17   51   0.090   0.091  -0.234
    1UNL    H18   52  -0.007   0.398  -0.070
    1UNL    H19   53   0.099   0.389   0.145
    1UNL    H20   54   0.286   0.202   0.183
    1UNL    H21   55   0.189   0.232   0.329
    1UNL    H22   56   0.067   0.054   0.175
    1UNL    H23   57  -0.120   0.347   0.186
    1UNL    H24   58  -0.147   0.116   0.288
    1UNL    H25   59  -0.241   0.154   0.085
    1UNL    H26   60  -0.106  -0.169   0.040
    1UNL    H27   61  -0.344  -0.172  -0.153
    1UNL    H28   62  -0.507   0.008  -0.145
    1UNL    H29   63  -0.576  -0.125  -0.054
    1UNL    H30   64  -0.439   0.032   0.120
    1UNL    H31   65  -0.458  -0.310   0.037
    1UNL    H32   66  -0.265  -0.434   0.061
    1UNL    H33   67  -0.301  -0.305   0.251
    1UNL    H34   68  -0.516  -0.121   0.205
    1UNL    H35   69  -0.164  -0.129   0.290
    1UNL    H36   70  -0.333  -0.017   0.336
    1UNL    H37   71  -0.085   0.113  -0.134
    1UNL    H38   72  -0.296   0.224  -0.136
   0.00000   0.00000   0.00000   0.00000   0.00000   0.00000   0.00000   0.00000   0.00000
Generated with MDTraj, t= 61.0
 72
    1UNL     C1    1   0.121  -0.249  -0.369
    1UNL     C2    2   0.186  -0.306  -0.245
    1UNL     C3    3   0.143  -0.441  -0.192
    1UNL     C4    4   0.291  -0.249  -0.187
    1UNL     C5    5   0.351  -0.121  -0.223
    1UNL     C6    6   0.308  -0.023  -0.111
    1UNL     O1    7   0.339  -0.060   0.025
    1UNL     C7    8   0.355   0.111  -0.137
    1UNL     C8    9   0.487   0.128  -0.061
    1UNL     C9   10   0.298   0.212  -0.203
    1UNL    C10   11   0.165   0.208  -0.265
    1UNL     O2   12   0.065   0.298  -0.216
    1UNL    C11   13   0.024   0.286  -0.071
    1UNL     O3   14   0.132   0.264   0.019
    1UNL    C12   15   0.080   0.299   0.145
    1UNL    C13   16   0.178   0.248   0.250
    1UNL     O4   17   0.194   0.108   0.227
    1UNL    C14   18  -0.068   0.242   0.177
    1UNL     O5   19  -0.073   0.185   0.301
    1UNL    C15   20  -0.113   0.132   0.078
    1UNL     O6   21  -0.063  -0.007   0.086
    1UNL    C16   22  -0.172  -0.097   0.069
    1UNL     O7   23  -0.267  -0.055  -0.031
    1UNL    C17   24  -0.378  -0.155  -0.056
    1UNL    C18   25  -0.510  -0.068  -0.070
    1UNL     O8   26  -0.517   0.042   0.015
    1UNL    C19   27  -0.379  -0.277   0.049
    1UNL     O9   28  -0.272  -0.360   0.018
    1UNL    C20   29  -0.367  -0.221   0.194
    1UNL    O10   30  -0.490  -0.165   0.238
    1UNL    C21   31  -0.250  -0.118   0.204
    1UNL    O11   32  -0.302   0.008   0.245
    1UNL    C22   33  -0.099   0.184  -0.066
    1UNL    O12   34  -0.221   0.234  -0.112
    1UNL     H1   35   0.065  -0.325  -0.426
    1UNL     H2   36   0.195  -0.210  -0.445
    1UNL     H3   37   0.043  -0.172  -0.353
    1UNL     H4   38   0.140  -0.444  -0.081
    1UNL     H5   39   0.198  -0.525  -0.235
    1UNL     H6   40   0.037  -0.450  -0.217
    1UNL     H7   41   0.325  -0.297  -0.102
    1UNL     H8   42   0.459  -0.136  -0.222
    1UNL     H9   43   0.329  -0.092  -0.325
    1UNL    H10   44   0.203  -0.027  -0.115
    1UNL    H11   45   0.289  -0.012   0.093
    1UNL    H12   46   0.579   0.105  -0.110
    1UNL    H13   47   0.508   0.228  -0.016
    1UNL    H14   48   0.485   0.080   0.036
    1UNL    H15   49   0.363   0.303  -0.201
    1UNL    H16   50   0.170   0.231  -0.373
    1UNL    H17   51   0.124   0.108  -0.255
    1UNL    H18   52  -0.023   0.383  -0.050
    1UNL    H19   53   0.072   0.406   0.148
    1UNL    H20   54   0.273   0.296   0.242
    1UNL    H21   55   0.136   0.265   0.347
    1UNL    H22   56   0.105   0.072   0.235
    1UNL    H23   57  -0.142   0.332   0.173
    1UNL    H24   58  -0.158   0.126   0.299
    1UNL    H25   59  -0.226   0.120   0.096
    1UNL    H26   60  -0.129  -0.193   0.037
    1UNL    H27   61  -0.352  -0.196  -0.155
    1UNL    H28   62  -0.514  -0.025  -0.168
    1UNL    H29   63  -0.601  -0.121  -0.056
    1UNL    H30   64  -0.431   0.058   0.066
    1UNL    H31   65  -0.467  -0.331   0.034
    1UNL    H32   66  -0.255  -0.437   0.082
    1UNL    H33   67  -0.338  -0.296   0.274
    1UNL    H34   68  -0.520  -0.098   0.172
    1UNL    H35   69  -0.179  -0.137   0.290
    1UNL    H36   70  -0.385  -0.009   0.298
    1UNL    H37   71  -0.075   0.105  -0.140
    1UNL    H38   72  -0.291   0.165  -0.118
   0.00000   0.00000   0.00000   0.00000   0.00000   0.00000   0.00000   0.00000   0.00000
Generated with MDTraj, t= 62.0
 72
    1UNL     C1    1   0.073  -0.221  -0.336
    1UNL     C2    2   0.163  -0.291  -0.235
    1UNL     C3    3   0.130  -0.427  -0.193
    1UNL     C4    4   0.282  -0.245  -0.194
    1UNL     C5    5   0.336  -0.109  -0.215
    1UNL     C6    6   0.303  -0.016  -0.098
    1UNL     O1    7   0.358  -0.070   0.023
    1UNL     C7    8   0.371   0.117  -0.132
    1UNL     C8    9   0.506   0.141  -0.076
    1UNL     C9   10   0.295   0.204  -0.205
    1UNL    C10   11   0.150   0.212  -0.249
    1UNL     O2   12   0.065   0.310  -0.213
    1UNL    C11   13   0.015   0.290  -0.081
    1UNL     O3   14   0.119   0.275   0.014
    1UNL    C12   15   0.090   0.293   0.154
    1UNL    C13   16   0.193   0.220   0.248
    1UNL     O4   17   0.189   0.085   0.210
    1UNL    C14   18  -0.058   0.242   0.184
    1UNL     O5   19  -0.063   0.173   0.306
    1UNL    C15   20  -0.117   0.147   0.074
    1UNL     O6   21  -0.068   0.017   0.102
    1UNL    C16   22  -0.171  -0.073   0.089
    1UNL     O7   23  -0.261  -0.045  -0.021
    1UNL    C17   24  -0.350  -0.151  -0.057
    1UNL    C18   25  -0.472  -0.074  -0.109
    1UNL     O8   26  -0.529  -0.001  -0.007
    1UNL    C19   27  -0.371  -0.265   0.042
    1UNL     O9   28  -0.281  -0.372   0.027
    1UNL    C20   29  -0.370  -0.213   0.192
    1UNL    O10   30  -0.501  -0.159   0.219
    1UNL    C21   31  -0.256  -0.106   0.222
    1UNL    O11   32  -0.305   0.011   0.281
    1UNL    C22   33  -0.087   0.169  -0.078
    1UNL    O12   34  -0.199   0.172  -0.154
    1UNL     H1   35  -0.023  -0.274  -0.361
    1UNL     H2   36   0.118  -0.211  -0.439
    1UNL     H3   37   0.034  -0.125  -0.302
    1UNL     H4   38   0.179  -0.450  -0.096
    1UNL     H5   39   0.159  -0.497  -0.273
    1UNL     H6   40   0.024  -0.441  -0.171
    1UNL     H7   41   0.340  -0.311  -0.123
    1UNL     H8   42   0.442  -0.104  -0.238
    1UNL     H9   43   0.292  -0.057  -0.299
    1UNL    H10   44   0.198  -0.006  -0.087
    1UNL    H11   45   0.322  -0.004   0.094
    1UNL    H12   46   0.583   0.116  -0.148
    1UNL    H13   47   0.514   0.250  -0.056
    1UNL    H14   48   0.514   0.100   0.024
    1UNL    H15   49   0.330   0.306  -0.203
    1UNL    H16   50   0.152   0.227  -0.356
    1UNL    H17   51   0.094   0.123  -0.223
    1UNL    H18   52  -0.046   0.380  -0.055
    1UNL    H19   53   0.096   0.398   0.185
    1UNL    H20   54   0.293   0.251   0.225
    1UNL    H21   55   0.169   0.234   0.354
    1UNL    H22   56   0.095   0.064   0.184
    1UNL    H23   57  -0.129   0.330   0.195
    1UNL    H24   58  -0.137   0.116   0.311
    1UNL    H25   59  -0.231   0.138   0.096
    1UNL    H26   60  -0.119  -0.170   0.071
    1UNL    H27   61  -0.295  -0.201  -0.142
    1UNL    H28   62  -0.457  -0.004  -0.190
    1UNL    H29   63  -0.545  -0.140  -0.144
    1UNL    H30   64  -0.456   0.048   0.034
    1UNL    H31   65  -0.468  -0.302   0.021
    1UNL    H32   66  -0.301  -0.437   0.097
    1UNL    H33   67  -0.359  -0.304   0.256
    1UNL    H34   68  -0.530  -0.105   0.141
    1UNL    H35   69  -0.183  -0.150   0.299
    1UNL    H36   70  -0.382  -0.012   0.338
    1UNL    H37   71  -0.035   0.076  -0.110
    1UNL    H38   72  -0.252   0.099  -0.121
   0.00000   0.00000   0.00000   0.00000   0.00000   0.00000   0.00000   0.00000   0.00000
Generated with MDTraj, t= 63.0
 72
    1UNL     C1    1   0.035  -0.176  -0.273
    1UNL     C2    2   0.133  -0.275  -0.216
    1UNL     C3    3   0.093  -0.421  -0.198
    1UNL     C4    4   0.263  -0.242  -0.187
    1UNL     C5    5   0.333  -0.106  -0.217
    1UNL     C6    6   0.313  -0.001  -0.107
    1UNL     O1    7   0.340  -0.059   0.023
    1UNL     C7    8   0.363   0.137  -0.138
    1UNL     C8    9   0.505   0.172  -0.099
    1UNL     C9   10   0.300   0.228  -0.215
    1UNL    C10   11   0.163   0.211  -0.266
    1UNL     O2   12   0.073   0.311  -0.213
    1UNL    C11   13   0.033   0.294  -0.073
    1UNL     O3   14   0.148   0.287   0.018
    1UNL    C12   15   0.114   0.280   0.158
    1UNL    C13   16   0.201   0.184   0.238
    1UNL     O4   17   0.171   0.052   0.214
    1UNL    C14   18  -0.037   0.252   0.178
    1UNL     O5   19  -0.074   0.214   0.307
    1UNL    C15   20  -0.092   0.140   0.078
    1UNL     O6   21  -0.069   0.010   0.115
    1UNL    C16   22  -0.182  -0.079   0.096
    1UNL     O7   23  -0.281  -0.055  -0.010
    1UNL    C17   24  -0.349  -0.171  -0.058
    1UNL    C18   25  -0.483  -0.124  -0.129
    1UNL     O8   26  -0.544  -0.014  -0.053
    1UNL    C19   27  -0.368  -0.279   0.051
    1UNL     O9   28  -0.264  -0.379   0.037
    1UNL    C20   29  -0.374  -0.210   0.192
    1UNL    O10   30  -0.500  -0.148   0.198
    1UNL    C21   31  -0.260  -0.111   0.229
    1UNL    O11   32  -0.302   0.000   0.290
    1UNL    C22   33  -0.057   0.161  -0.067
    1UNL    O12   34  -0.172   0.163  -0.151
    1UNL     H1   35  -0.067  -0.224  -0.278
    1UNL     H2   36   0.067  -0.149  -0.376
    1UNL     H3   37   0.031  -0.097  -0.198
    1UNL     H4   38   0.152  -0.473  -0.122
    1UNL     H5   39   0.105  -0.466  -0.299
    1UNL     H6   40  -0.011  -0.441  -0.174
    1UNL     H7   41   0.314  -0.316  -0.134
    1UNL     H8   42   0.440  -0.117  -0.234
    1UNL     H9   43   0.290  -0.075  -0.310
    1UNL    H10   44   0.210   0.027  -0.100
    1UNL    H11   45   0.302  -0.002   0.092
    1UNL    H12   46   0.557   0.199  -0.193
    1UNL    H13   47   0.500   0.261  -0.035
    1UNL    H14   48   0.545   0.093  -0.038
    1UNL    H15   49   0.341   0.324  -0.221
    1UNL    H16   50   0.163   0.224  -0.371
    1UNL    H17   51   0.118   0.113  -0.242
    1UNL    H18   52  -0.029   0.384  -0.047
    1UNL    H19   53   0.135   0.383   0.198
    1UNL    H20   54   0.306   0.201   0.207
    1UNL    H21   55   0.182   0.192   0.349
    1UNL    H22   56   0.086   0.047   0.166
    1UNL    H23   57  -0.088   0.348   0.154
    1UNL    H24   58  -0.141   0.144   0.299
    1UNL    H25   59  -0.206   0.158   0.078
    1UNL    H26   60  -0.130  -0.172   0.054
    1UNL    H27   61  -0.275  -0.218  -0.131
    1UNL    H28   62  -0.454  -0.089  -0.226
    1UNL    H29   63  -0.559  -0.190  -0.149
    1UNL    H30   64  -0.466   0.047  -0.036
    1UNL    H31   65  -0.463  -0.323   0.032
    1UNL    H32   66  -0.270  -0.437   0.111
    1UNL    H33   67  -0.374  -0.297   0.260
    1UNL    H34   68  -0.519  -0.100   0.116
    1UNL    H35   69  -0.184  -0.163   0.301
    1UNL    H36   70  -0.388  -0.021   0.334
    1UNL    H37   71   0.007   0.080  -0.107
    1UNL    H38   72  -0.232   0.091  -0.117
   0.00000   0.00000   0.00000   0.00000   0.00000   0.00000   0.00000   0.00000   0.00000
Generated with MDTraj, t= 64.0
 72
    1UNL     C1    1   0.016  -0.146  -0.233
    1UNL     C2    2   0.118  -0.252  -0.203
    1UNL     C3    3   0.065  -0.381  -0.150
    1UNL     C4    4   0.250  -0.229  -0.216
    1UNL     C5    5   0.307  -0.093  -0.243
    1UNL     C6    6   0.295  -0.003  -0.127
    1UNL     O1    7   0.348  -0.076  -0.018
    1UNL     C7    8   0.369   0.137  -0.145
    1UNL     C8    9   0.518   0.170  -0.101
    1UNL     C9   10   0.311   0.235  -0.212
    1UNL    C10   11   0.177   0.228  -0.273
    1UNL     O2   12   0.088   0.311  -0.198
    1UNL    C11   13   0.051   0.271  -0.071
    1UNL     O3   14   0.152   0.249   0.034
    1UNL    C12   15   0.096   0.278   0.163
    1UNL    C13   16   0.183   0.197   0.265
    1UNL     O4   17   0.186   0.065   0.220
    1UNL    C14   18  -0.054   0.241   0.178
    1UNL     O5   19  -0.075   0.178   0.300
    1UNL    C15   20  -0.111   0.136   0.068
    1UNL     O6   21  -0.085   0.010   0.116
    1UNL    C16   22  -0.184  -0.093   0.097
    1UNL     O7   23  -0.264  -0.068  -0.019
    1UNL    C17   24  -0.337  -0.181  -0.060
    1UNL    C18   25  -0.462  -0.140  -0.136
    1UNL     O8   26  -0.541  -0.040  -0.080
    1UNL    C19   27  -0.368  -0.279   0.062
    1UNL     O9   28  -0.246  -0.363   0.070
    1UNL    C20   29  -0.380  -0.199   0.199
    1UNL    O10   30  -0.498  -0.124   0.200
    1UNL    C21   31  -0.259  -0.112   0.231
    1UNL    O11   32  -0.299   0.006   0.283
    1UNL    C22   33  -0.057   0.155  -0.068
    1UNL    O12   34  -0.149   0.164  -0.176
    1UNL     H1   35  -0.023  -0.167  -0.336
    1UNL     H2   36   0.047  -0.044  -0.240
    1UNL     H3   37  -0.071  -0.162  -0.166
    1UNL     H4   38   0.126  -0.416  -0.067
    1UNL     H5   39   0.053  -0.449  -0.236
    1UNL     H6   40  -0.037  -0.373  -0.109
    1UNL     H7   41   0.320  -0.314  -0.201
    1UNL     H8   42   0.409  -0.121  -0.268
    1UNL     H9   43   0.262  -0.053  -0.331
    1UNL    H10   44   0.193   0.017  -0.110
    1UNL    H11   45   0.333  -0.028   0.071
    1UNL    H12   46   0.549   0.258  -0.161
    1UNL    H13   47   0.527   0.205   0.001
    1UNL    H14   48   0.595   0.093  -0.114
    1UNL    H15   49   0.364   0.334  -0.224
    1UNL    H16   50   0.175   0.268  -0.371
    1UNL    H17   51   0.131   0.126  -0.272
    1UNL    H18   52   0.000   0.365  -0.035
    1UNL    H19   53   0.105   0.390   0.180
    1UNL    H20   54   0.289   0.234   0.271
    1UNL    H21   55   0.120   0.195   0.360
    1UNL    H22   56   0.104   0.042   0.170
    1UNL    H23   57  -0.110   0.333   0.182
    1UNL    H24   58  -0.146   0.103   0.288
    1UNL    H25   59  -0.224   0.143   0.068
    1UNL    H26   60  -0.126  -0.186   0.058
    1UNL    H27   61  -0.274  -0.244  -0.130
    1UNL    H28   62  -0.436  -0.099  -0.234
    1UNL    H29   63  -0.519  -0.220  -0.156
    1UNL    H30   64  -0.482   0.031  -0.058
    1UNL    H31   65  -0.461  -0.330   0.037
    1UNL    H32   66  -0.249  -0.408   0.156
    1UNL    H33   67  -0.393  -0.272   0.279
    1UNL    H34   68  -0.515  -0.090   0.107
    1UNL    H35   69  -0.188  -0.151   0.316
    1UNL    H36   70  -0.393   0.021   0.259
    1UNL    H37   71   0.003   0.062  -0.082
    1UNL    H38   72  -0.223   0.104  -0.161
   0.00000   0.00000   0.00000   0.00000   0.00000   0.00000   0.00000   0.00000   0.00000
Generated with MDTraj, t= 65.0
 72
    1UNL     C1    1   0.004  -0.156  -0.259
    1UNL     C2    2   0.097  -0.248  -0.200
    1UNL     C3    3   0.042  -0.358  -0.116
    1UNL     C4    4   0.229  -0.220  -0.204
    1UNL     C5    5   0.292  -0.086  -0.242
    1UNL     C6    6   0.296   0.003  -0.115
    1UNL     O1    7   0.349  -0.075   0.001
    1UNL     C7    8   0.369   0.142  -0.140
    1UNL     C8    9   0.508   0.132  -0.114
    1UNL     C9   10   0.321   0.251  -0.195
    1UNL    C10   11   0.183   0.252  -0.260
    1UNL     O2   12   0.080   0.332  -0.199
    1UNL    C11   13   0.037   0.297  -0.072
    1UNL     O3   14   0.141   0.309   0.031
    1UNL    C12   15   0.104   0.278   0.167
    1UNL    C13   16   0.212   0.186   0.225
    1UNL     O4   17   0.206   0.048   0.197
    1UNL    C14   18  -0.050   0.235   0.186
    1UNL     O5   19  -0.062   0.182   0.313
    1UNL    C15   20  -0.105   0.127   0.076
    1UNL     O6   21  -0.068  -0.003   0.113
    1UNL    C16   22  -0.173  -0.102   0.091
    1UNL     O7   23  -0.243  -0.096  -0.030
    1UNL    C17   24  -0.333  -0.210  -0.058
    1UNL    C18   25  -0.448  -0.154  -0.146
    1UNL     O8   26  -0.501  -0.044  -0.087
    1UNL    C19   27  -0.376  -0.292   0.068
    1UNL     O9   28  -0.268  -0.389   0.089
    1UNL    C20   29  -0.389  -0.204   0.196
    1UNL    O10   30  -0.514  -0.126   0.202
    1UNL    C21   31  -0.266  -0.107   0.215
    1UNL    O11   32  -0.314   0.026   0.241
    1UNL    C22   33  -0.051   0.160  -0.062
    1UNL    O12   34  -0.156   0.164  -0.151
    1UNL     H1   35  -0.097  -0.194  -0.270
    1UNL     H2   36   0.028  -0.136  -0.362
    1UNL     H3   37  -0.008  -0.061  -0.208
    1UNL     H4   38   0.081  -0.356  -0.014
    1UNL     H5   39   0.038  -0.454  -0.170
    1UNL     H6   40  -0.066  -0.344  -0.098
    1UNL     H7   41   0.293  -0.290  -0.152
    1UNL     H8   42   0.395  -0.104  -0.269
    1UNL     H9   43   0.251  -0.053  -0.337
    1UNL    H10   44   0.195   0.021  -0.092
    1UNL    H11   45   0.340  -0.021   0.078
    1UNL    H12   46   0.552   0.223  -0.159
    1UNL    H13   47   0.539   0.138  -0.011
    1UNL    H14   48   0.561   0.045  -0.156
    1UNL    H15   49   0.371   0.338  -0.209
    1UNL    H16   50   0.191   0.298  -0.357
    1UNL    H17   51   0.147   0.145  -0.270
    1UNL    H18   52  -0.038   0.376  -0.048
    1UNL    H19   53   0.119   0.381   0.214
    1UNL    H20   54   0.305   0.221   0.168
    1UNL    H21   55   0.217   0.190   0.339
    1UNL    H22   56   0.112   0.030   0.164
    1UNL    H23   57  -0.110   0.322   0.183
    1UNL    H24   58  -0.141   0.129   0.315
    1UNL    H25   59  -0.214   0.136   0.074
    1UNL    H26   60  -0.123  -0.208   0.086
    1UNL    H27   61  -0.268  -0.279  -0.115
    1UNL    H28   62  -0.402  -0.117  -0.242
    1UNL    H29   63  -0.525  -0.217  -0.163
    1UNL    H30   64  -0.440   0.038  -0.084
    1UNL    H31   65  -0.469  -0.350   0.046
    1UNL    H32   66  -0.284  -0.442   0.174
    1UNL    H33   67  -0.397  -0.280   0.273
    1UNL    H34   68  -0.533  -0.102   0.109
    1UNL    H35   69  -0.214  -0.134   0.316
    1UNL    H36   70  -0.411   0.034   0.220
    1UNL    H37   71   0.004   0.071  -0.096
    1UNL    H38   72  -0.211   0.082  -0.136
   0.00000   0.00000   0.00000   0.00000   0.00000   0.00000   0.00000   0.00000   0.00000
Generated with MDTraj, t= 66.0
 72
    1UNL     C1    1  -0.010  -0.188  -0.299
    1UNL     C2    2   0.076  -0.259  -0.204
    1UNL     C3    3   0.018  -0.371  -0.135
    1UNL     C4    4   0.204  -0.231  -0.178
    1UNL     C5    5   0.282  -0.106  -0.220
    1UNL     C6    6   0.298   0.007  -0.109
    1UNL     O1    7   0.390  -0.048  -0.015
    1UNL     C7    8   0.355   0.138  -0.150
    1UNL     C8    9   0.499   0.173  -0.097
    1UNL     C9   10   0.298   0.228  -0.223
    1UNL    C10   11   0.147   0.238  -0.263
    1UNL     O2   12   0.073   0.332  -0.184
    1UNL    C11   13   0.029   0.298  -0.056
    1UNL     O3   14   0.134   0.293   0.039
    1UNL    C12   15   0.102   0.273   0.177
    1UNL    C13   16   0.208   0.183   0.249
    1UNL     O4   17   0.222   0.055   0.185
    1UNL    C14   18  -0.051   0.221   0.201
    1UNL     O5   19  -0.057   0.152   0.322
    1UNL    C15   20  -0.103   0.132   0.081
    1UNL     O6   21  -0.067  -0.000   0.115
    1UNL    C16   22  -0.173  -0.089   0.093
    1UNL     O7   23  -0.234  -0.082  -0.036
    1UNL    C17   24  -0.319  -0.204  -0.054
    1UNL    C18   25  -0.436  -0.154  -0.149
    1UNL     O8   26  -0.477  -0.033  -0.093
    1UNL    C19   27  -0.360  -0.284   0.075
    1UNL     O9   28  -0.259  -0.389   0.097
    1UNL    C20   29  -0.381  -0.193   0.193
    1UNL    O10   30  -0.502  -0.116   0.182
    1UNL    C21   31  -0.268  -0.087   0.210
    1UNL    O11   32  -0.324   0.046   0.219
    1UNL    C22   33  -0.045   0.166  -0.057
    1UNL    O12   34  -0.140   0.150  -0.154
    1UNL     H1   35  -0.105  -0.167  -0.261
    1UNL     H2   36  -0.020  -0.262  -0.382
    1UNL     H3   37   0.039  -0.099  -0.332
    1UNL     H4   38  -0.004  -0.337  -0.033
    1UNL     H5   39   0.081  -0.460  -0.147
    1UNL     H6   40  -0.076  -0.409  -0.178
    1UNL     H7   41   0.243  -0.295  -0.100
    1UNL     H8   42   0.376  -0.135  -0.265
    1UNL     H9   43   0.242  -0.052  -0.306
    1UNL    H10   44   0.206   0.022  -0.058
    1UNL    H11   45   0.359  -0.004   0.070
    1UNL    H12   46   0.551   0.234  -0.173
    1UNL    H13   47   0.498   0.228  -0.003
    1UNL    H14   48   0.554   0.079  -0.074
    1UNL    H15   49   0.353   0.321  -0.254
    1UNL    H16   50   0.140   0.263  -0.370
    1UNL    H17   51   0.099   0.136  -0.251
    1UNL    H18   52  -0.031   0.384  -0.017
    1UNL    H19   53   0.109   0.372   0.227
    1UNL    H20   54   0.312   0.223   0.242
    1UNL    H21   55   0.168   0.171   0.351
    1UNL    H22   56   0.128   0.026   0.171
    1UNL    H23   57  -0.116   0.305   0.217
    1UNL    H24   58  -0.148   0.105   0.317
    1UNL    H25   59  -0.210   0.149   0.079
    1UNL    H26   60  -0.126  -0.196   0.101
    1UNL    H27   61  -0.252  -0.279  -0.100
    1UNL    H28   62  -0.400  -0.132  -0.254
    1UNL    H29   63  -0.516  -0.218  -0.149
    1UNL    H30   64  -0.408   0.033  -0.079
    1UNL    H31   65  -0.459  -0.339   0.054
    1UNL    H32   66  -0.300  -0.457   0.160
    1UNL    H33   67  -0.387  -0.257   0.281
    1UNL    H34   68  -0.498  -0.073   0.093
    1UNL    H35   69  -0.203  -0.096   0.302
    1UNL    H36   70  -0.400   0.061   0.279
    1UNL    H37   71   0.020   0.078  -0.084
    1UNL    H38   72  -0.179   0.062  -0.142
   0.00000   0.00000   0.00000   0.00000   0.00000   0.00000   0.00000   0.00000   0.00000
Generated with MDTraj, t= 67.0
 72
    1UNL     C1    1   0.005  -0.190  -0.329
    1UNL     C2    2   0.071  -0.251  -0.207
    1UNL     C3    3   0.037  -0.389  -0.157
    1UNL     C4    4   0.183  -0.191  -0.166
    1UNL     C5    5   0.260  -0.074  -0.219
    1UNL     C6    6   0.297   0.023  -0.099
    1UNL     O1    7   0.387  -0.044  -0.003
    1UNL     C7    8   0.358   0.153  -0.160
    1UNL     C8    9   0.502   0.165  -0.125
    1UNL     C9   10   0.291   0.236  -0.229
    1UNL    C10   11   0.148   0.221  -0.263
    1UNL     O2   12   0.066   0.315  -0.198
    1UNL    C11   13   0.040   0.270  -0.061
    1UNL     O3   14   0.152   0.266   0.026
    1UNL    C12   15   0.114   0.277   0.163
    1UNL    C13   16   0.198   0.193   0.264
    1UNL     O4   17   0.199   0.054   0.227
    1UNL    C14   18  -0.037   0.228   0.189
    1UNL     O5   19  -0.061   0.189   0.321
    1UNL    C15   20  -0.090   0.114   0.090
    1UNL     O6   21  -0.065  -0.019   0.137
    1UNL    C16   22  -0.173  -0.103   0.109
    1UNL     O7   23  -0.240  -0.075  -0.019
    1UNL    C17   24  -0.316  -0.189  -0.062
    1UNL    C18   25  -0.432  -0.135  -0.145
    1UNL     O8   26  -0.497  -0.025  -0.091
    1UNL    C19   27  -0.355  -0.283   0.062
    1UNL     O9   28  -0.252  -0.375   0.100
    1UNL    C20   29  -0.387  -0.190   0.181
    1UNL    O10   30  -0.506  -0.115   0.153
    1UNL    C21   31  -0.268  -0.099   0.221
    1UNL    O11   32  -0.309   0.030   0.257
    1UNL    C22   33  -0.040   0.133  -0.057
    1UNL    O12   34  -0.144   0.139  -0.149
    1UNL     H1   35   0.011  -0.085  -0.336
    1UNL     H2   36  -0.102  -0.216  -0.312
    1UNL     H3   37   0.036  -0.230  -0.424
    1UNL     H4   38  -0.060  -0.384  -0.105
    1UNL     H5   39   0.122  -0.432  -0.102
    1UNL     H6   40   0.035  -0.457  -0.243
    1UNL     H7   41   0.237  -0.241  -0.083
    1UNL     H8   42   0.356  -0.099  -0.261
    1UNL     H9   43   0.207  -0.030  -0.304
    1UNL    H10   44   0.212   0.050  -0.038
    1UNL    H11   45   0.393   0.011   0.080
    1UNL    H12   46   0.560   0.153  -0.218
    1UNL    H13   47   0.517   0.258  -0.067
    1UNL    H14   48   0.520   0.081  -0.055
    1UNL    H15   49   0.327   0.332  -0.266
    1UNL    H16   50   0.135   0.237  -0.373
    1UNL    H17   51   0.111   0.118  -0.239
    1UNL    H18   52  -0.014   0.353  -0.013
    1UNL    H19   53   0.129   0.381   0.189
    1UNL    H20   54   0.299   0.231   0.251
    1UNL    H21   55   0.156   0.196   0.363
    1UNL    H22   56   0.104   0.026   0.206
    1UNL    H23   57  -0.103   0.315   0.178
    1UNL    H24   58  -0.140   0.135   0.314
    1UNL    H25   59  -0.195   0.127   0.092
    1UNL    H26   60  -0.129  -0.213   0.108
    1UNL    H27   61  -0.259  -0.254  -0.126
    1UNL    H28   62  -0.383  -0.104  -0.243
    1UNL    H29   63  -0.507  -0.204  -0.169
    1UNL    H30   64  -0.440   0.055  -0.094
    1UNL    H31   65  -0.452  -0.330   0.021
    1UNL    H32   66  -0.289  -0.449   0.151
    1UNL    H33   67  -0.410  -0.252   0.269
    1UNL    H34   68  -0.501  -0.072   0.066
    1UNL    H35   69  -0.224  -0.144   0.311
    1UNL    H36   70  -0.407   0.042   0.251
    1UNL    H37   71   0.013   0.037  -0.085
    1UNL    H38   72  -0.204   0.064  -0.129
   0.00000   0.00000   0.00000   0.00000   0.00000   0.00000   0.00000   0.00000   0.00000
Generated with MDTraj, t= 68.0
 72
    1UNL     C1    1   0.041  -0.201  -0.341
    1UNL     C2    2   0.097  -0.243  -0.211
    1UNL     C3    3   0.034  -0.367  -0.152
    1UNL     C4    4   0.207  -0.200  -0.148
    1UNL     C5    5   0.290  -0.091  -0.212
    1UNL     C6    6   0.294   0.022  -0.117
    1UNL     O1    7   0.354  -0.008   0.004
    1UNL     C7    8   0.370   0.143  -0.170
    1UNL     C8    9   0.520   0.148  -0.142
    1UNL     C9   10   0.306   0.235  -0.226
    1UNL    C10   11   0.163   0.234  -0.265
    1UNL     O2   12   0.077   0.324  -0.200
    1UNL    C11   13   0.044   0.278  -0.070
    1UNL     O3   14   0.151   0.258   0.019
    1UNL    C12   15   0.100   0.274   0.155
    1UNL    C13   16   0.195   0.185   0.247
    1UNL     O4   17   0.178   0.047   0.231
    1UNL    C14   18  -0.043   0.234   0.181
    1UNL     O5   19  -0.061   0.195   0.314
    1UNL    C15   20  -0.097   0.129   0.083
    1UNL     O6   21  -0.071  -0.003   0.133
    1UNL    C16   22  -0.179  -0.098   0.112
    1UNL     O7   23  -0.256  -0.069  -0.008
    1UNL    C17   24  -0.316  -0.188  -0.061
    1UNL    C18   25  -0.423  -0.137  -0.158
    1UNL     O8   26  -0.484  -0.018  -0.113
    1UNL    C19   27  -0.371  -0.282   0.056
    1UNL     O9   28  -0.301  -0.406   0.082
    1UNL    C20   29  -0.385  -0.203   0.190
    1UNL    O10   30  -0.504  -0.127   0.197
    1UNL    C21   31  -0.261  -0.121   0.241
    1UNL    O11   32  -0.290  -0.001   0.312
    1UNL    C22   33  -0.057   0.156  -0.063
    1UNL    O12   34  -0.167   0.166  -0.150
    1UNL     H1   35   0.099  -0.235  -0.426
    1UNL     H2   36   0.034  -0.094  -0.338
    1UNL     H3   37  -0.060  -0.231  -0.364
    1UNL     H4   38  -0.074  -0.351  -0.141
    1UNL     H5   39   0.080  -0.410  -0.062
    1UNL     H6   40   0.048  -0.449  -0.223
    1UNL     H7   41   0.242  -0.250  -0.063
    1UNL     H8   42   0.383  -0.140  -0.231
    1UNL     H9   43   0.246  -0.056  -0.306
    1UNL    H10   44   0.193   0.057  -0.092
    1UNL    H11   45   0.299   0.018   0.082
    1UNL    H12   46   0.580   0.132  -0.233
    1UNL    H13   47   0.556   0.236  -0.084
    1UNL    H14   48   0.546   0.063  -0.077
    1UNL    H15   49   0.357   0.320  -0.258
    1UNL    H16   50   0.150   0.255  -0.375
    1UNL    H17   51   0.120   0.133  -0.244
    1UNL    H18   52  -0.011   0.361  -0.029
    1UNL    H19   53   0.114   0.376   0.182
    1UNL    H20   54   0.302   0.198   0.229
    1UNL    H21   55   0.163   0.202   0.346
    1UNL    H22   56   0.085   0.033   0.212
    1UNL    H23   57  -0.102   0.328   0.161
    1UNL    H24   58  -0.116   0.117   0.320
    1UNL    H25   59  -0.201   0.131   0.085
    1UNL    H26   60  -0.115  -0.192   0.080
    1UNL    H27   61  -0.236  -0.247  -0.098
    1UNL    H28   62  -0.370  -0.113  -0.253
    1UNL    H29   63  -0.496  -0.211  -0.185
    1UNL    H30   64  -0.410   0.043  -0.082
    1UNL    H31   65  -0.480  -0.309   0.025
    1UNL    H32   66  -0.360  -0.462   0.130
    1UNL    H33   67  -0.401  -0.286   0.263
    1UNL    H34   68  -0.507  -0.072   0.117
    1UNL    H35   69  -0.210  -0.188   0.306
    1UNL    H36   70  -0.380  -0.007   0.348
    1UNL    H37   71  -0.009   0.063  -0.099
    1UNL    H38   72  -0.220   0.083  -0.168
   0.00000   0.00000   0.00000   0.00000   0.00000   0.00000   0.00000   0.00000   0.00000
Generated with MDTraj, t= 69.0
 72
    1UNL     C1    1   0.074  -0.196  -0.335
    1UNL     C2    2   0.128  -0.270  -0.212
    1UNL     C3    3   0.042  -0.362  -0.135
    1UNL     C4    4   0.246  -0.230  -0.165
    1UNL     C5    5   0.329  -0.116  -0.206
    1UNL     C6    6   0.321   0.001  -0.114
    1UNL     O1    7   0.369  -0.022   0.021
    1UNL     C7    8   0.367   0.130  -0.178
    1UNL     C8    9   0.503   0.168  -0.137
    1UNL     C9   10   0.296   0.214  -0.240
    1UNL    C10   11   0.147   0.212  -0.259
    1UNL     O2   12   0.083   0.321  -0.191
    1UNL    C11   13   0.029   0.287  -0.065
    1UNL     O3   14   0.134   0.254   0.032
    1UNL    C12   15   0.085   0.273   0.164
    1UNL    C13   16   0.185   0.202   0.258
    1UNL     O4   17   0.211   0.074   0.228
    1UNL    C14   18  -0.057   0.230   0.185
    1UNL     O5   19  -0.063   0.182   0.321
    1UNL    C15   20  -0.117   0.125   0.080
    1UNL     O6   21  -0.066  -0.004   0.107
    1UNL    C16   22  -0.173  -0.093   0.084
    1UNL     O7   23  -0.259  -0.064  -0.026
    1UNL    C17   24  -0.341  -0.177  -0.072
    1UNL    C18   25  -0.466  -0.129  -0.152
    1UNL     O8   26  -0.547  -0.044  -0.075
    1UNL    C19   27  -0.386  -0.270   0.052
    1UNL     O9   28  -0.312  -0.391   0.056
    1UNL    C20   29  -0.381  -0.194   0.189
    1UNL    O10   30  -0.478  -0.087   0.196
    1UNL    C21   31  -0.238  -0.137   0.224
    1UNL    O11   32  -0.255  -0.024   0.308
    1UNL    C22   33  -0.073   0.167  -0.063
    1UNL    O12   34  -0.179   0.204  -0.143
    1UNL     H1   35  -0.027  -0.240  -0.348
    1UNL     H2   36   0.136  -0.210  -0.417
    1UNL     H3   37   0.060  -0.092  -0.323
    1UNL     H4   38  -0.052  -0.388  -0.187
    1UNL     H5   39   0.014  -0.318  -0.039
    1UNL     H6   40   0.092  -0.453  -0.107
    1UNL     H7   41   0.287  -0.282  -0.075
    1UNL     H8   42   0.432  -0.143  -0.202
    1UNL     H9   43   0.299  -0.092  -0.309
    1UNL    H10   44   0.214   0.016  -0.091
    1UNL    H11   45   0.322   0.036   0.092
    1UNL    H12   46   0.575   0.170  -0.219
    1UNL    H13   47   0.512   0.268  -0.087
    1UNL    H14   48   0.543   0.098  -0.063
    1UNL    H15   49   0.341   0.315  -0.276
    1UNL    H16   50   0.126   0.229  -0.369
    1UNL    H17   51   0.106   0.117  -0.222
    1UNL    H18   52  -0.022   0.379  -0.041
    1UNL    H19   53   0.100   0.377   0.179
    1UNL    H20   54   0.278   0.257   0.239
    1UNL    H21   55   0.152   0.192   0.359
    1UNL    H22   56   0.124   0.031   0.202
    1UNL    H23   57  -0.117   0.326   0.188
    1UNL    H24   58  -0.122   0.098   0.318
    1UNL    H25   59  -0.220   0.119   0.091
    1UNL    H26   60  -0.117  -0.189   0.046
    1UNL    H27   61  -0.272  -0.239  -0.124
    1UNL    H28   62  -0.443  -0.085  -0.250
    1UNL    H29   63  -0.525  -0.220  -0.177
    1UNL    H30   64  -0.498   0.038  -0.070
    1UNL    H31   65  -0.496  -0.295   0.034
    1UNL    H32   66  -0.318  -0.433   0.144
    1UNL    H33   67  -0.408  -0.270   0.267
    1UNL    H34   68  -0.501  -0.063   0.103
    1UNL    H35   69  -0.172  -0.199   0.277
    1UNL    H36   70  -0.338   0.022   0.279
    1UNL    H37   71  -0.027   0.078  -0.108
    1UNL    H38   72  -0.249   0.139  -0.127
   0.00000   0.00000   0.00000   0.00000   0.00000   0.00000   0.00000   0.00000   0.00000
Generated with MDTraj, t= 70.0
 72
    1UNL     C1    1   0.065  -0.192  -0.301
    1UNL     C2    2   0.149  -0.276  -0.216
    1UNL     C3    3   0.091  -0.402  -0.151
    1UNL     C4    4   0.271  -0.245  -0.175
    1UNL     C5    5   0.344  -0.115  -0.197
    1UNL     C6    6   0.334  -0.002  -0.091
    1UNL     O1    7   0.392  -0.042   0.035
    1UNL     C7    8   0.381   0.137  -0.139
    1UNL     C8    9   0.529   0.169  -0.142
    1UNL     C9   10   0.297   0.218  -0.200
    1UNL    C10   11   0.148   0.188  -0.250
    1UNL     O2   12   0.052   0.286  -0.222
    1UNL    C11   13   0.004   0.280  -0.090
    1UNL     O3   14   0.118   0.267  -0.001
    1UNL    C12   15   0.088   0.276   0.136
    1UNL    C13   16   0.202   0.211   0.231
    1UNL     O4   17   0.191   0.066   0.228
    1UNL    C14   18  -0.048   0.224   0.184
    1UNL     O5   19  -0.047   0.180   0.323
    1UNL    C15   20  -0.119   0.127   0.091
    1UNL     O6   21  -0.068  -0.003   0.104
    1UNL    C16   22  -0.179  -0.084   0.076
    1UNL     O7   23  -0.282  -0.043  -0.016
    1UNL    C17   24  -0.356  -0.154  -0.072
    1UNL    C18   25  -0.480  -0.109  -0.146
    1UNL     O8   26  -0.563  -0.030  -0.070
    1UNL    C19   27  -0.386  -0.263   0.044
    1UNL     O9   28  -0.295  -0.365   0.020
    1UNL    C20   29  -0.374  -0.198   0.189
    1UNL    O10   30  -0.474  -0.099   0.201
    1UNL    C21   31  -0.234  -0.140   0.217
    1UNL    O11   32  -0.254  -0.039   0.309
    1UNL    C22   33  -0.106   0.172  -0.059
    1UNL    O12   34  -0.224   0.228  -0.108
    1UNL     H1   35  -0.017  -0.156  -0.236
    1UNL     H2   36   0.032  -0.247  -0.385
    1UNL     H3   37   0.113  -0.107  -0.339
    1UNL     H4   38   0.027  -0.470  -0.210
    1UNL     H5   39   0.026  -0.372  -0.067
    1UNL     H6   40   0.171  -0.456  -0.102
    1UNL     H7   41   0.315  -0.316  -0.113
    1UNL     H8   42   0.446  -0.137  -0.211
    1UNL     H9   43   0.321  -0.064  -0.291
    1UNL    H10   44   0.227   0.003  -0.065
    1UNL    H11   45   0.360   0.013   0.107
    1UNL    H12   46   0.551   0.194  -0.247
    1UNL    H13   47   0.547   0.259  -0.078
    1UNL    H14   48   0.591   0.085  -0.106
    1UNL    H15   49   0.323   0.304  -0.248
    1UNL    H16   50   0.149   0.188  -0.362
    1UNL    H17   51   0.113   0.094  -0.207
    1UNL    H18   52  -0.038   0.380  -0.086
    1UNL    H19   53   0.079   0.384   0.156
    1UNL    H20   54   0.307   0.233   0.201
    1UNL    H21   55   0.176   0.246   0.330
    1UNL    H22   56   0.099   0.046   0.214
    1UNL    H23   57  -0.121   0.307   0.190
    1UNL    H24   58  -0.104   0.103   0.335
    1UNL    H25   59  -0.221   0.128   0.113
    1UNL    H26   60  -0.136  -0.181   0.026
    1UNL    H27   61  -0.290  -0.193  -0.149
    1UNL    H28   62  -0.455  -0.057  -0.236
    1UNL    H29   63  -0.539  -0.199  -0.181
    1UNL    H30   64  -0.518   0.059  -0.048
    1UNL    H31   65  -0.492  -0.295   0.026
    1UNL    H32   66  -0.272  -0.416   0.105
    1UNL    H33   67  -0.389  -0.278   0.265
    1UNL    H34   68  -0.506  -0.073   0.113
    1UNL    H35   69  -0.165  -0.205   0.262
    1UNL    H36   70  -0.324   0.016   0.269
    1UNL    H37   71  -0.081   0.085  -0.119
    1UNL    H38   72  -0.301   0.179  -0.066
   0.00000   0.00000   0.00000   0.00000   0.00000   0.00000   0.00000   0.00000   0.00000
Generated with MDTraj, t= 71.0
 72
    1UNL     C1    1   0.073  -0.196  -0.232
    1UNL     C2    2   0.174  -0.296  -0.194
    1UNL     C3    3   0.130  -0.433  -0.173
    1UNL     C4    4   0.302  -0.259  -0.171
    1UNL     C5    5   0.353  -0.116  -0.197
    1UNL     C6    6   0.325  -0.014  -0.084
    1UNL     O1    7   0.397  -0.062   0.035
    1UNL     C7    8   0.350   0.124  -0.138
    1UNL     C8    9   0.480   0.194  -0.094
    1UNL     C9   10   0.281   0.205  -0.217
    1UNL    C10   11   0.136   0.166  -0.267
    1UNL     O2   12   0.034   0.267  -0.239
    1UNL    C11   13   0.005   0.276  -0.098
    1UNL     O3   14   0.112   0.242   0.000
    1UNL    C12   15   0.091   0.280   0.135
    1UNL    C13   16   0.198   0.202   0.213
    1UNL     O4   17   0.206   0.066   0.174
    1UNL    C14   18  -0.050   0.236   0.194
    1UNL     O5   19  -0.036   0.166   0.316
    1UNL    C15   20  -0.128   0.150   0.093
    1UNL     O6   21  -0.076   0.017   0.107
    1UNL    C16   22  -0.182  -0.073   0.080
    1UNL     O7   23  -0.277  -0.033  -0.022
    1UNL    C17   24  -0.348  -0.144  -0.079
    1UNL    C18   25  -0.475  -0.080  -0.133
    1UNL     O8   26  -0.527   0.014  -0.036
    1UNL    C19   27  -0.373  -0.259   0.023
    1UNL     O9   28  -0.282  -0.365   0.008
    1UNL    C20   29  -0.374  -0.215   0.174
    1UNL    O10   30  -0.488  -0.156   0.216
    1UNL    C21   31  -0.253  -0.134   0.209
    1UNL    O11   32  -0.264  -0.026   0.299
    1UNL    C22   33  -0.125   0.197  -0.065
    1UNL    O12   34  -0.230   0.286  -0.103
    1UNL     H1   35   0.070  -0.119  -0.164
    1UNL     H2   36  -0.028  -0.232  -0.244
    1UNL     H3   37   0.089  -0.154  -0.330
    1UNL     H4   38   0.059  -0.471  -0.248
    1UNL     H5   39   0.078  -0.434  -0.077
    1UNL     H6   40   0.219  -0.496  -0.164
    1UNL     H7   41   0.377  -0.328  -0.125
    1UNL     H8   42   0.457  -0.112  -0.211
    1UNL     H9   43   0.311  -0.088  -0.294
    1UNL    H10   44   0.219  -0.013  -0.056
    1UNL    H11   45   0.340  -0.050   0.119
    1UNL    H12   46   0.538   0.230  -0.183
    1UNL    H13   47   0.448   0.281  -0.032
    1UNL    H14   48   0.544   0.135  -0.027
    1UNL    H15   49   0.323   0.294  -0.266
    1UNL    H16   50   0.138   0.151  -0.376
    1UNL    H17   51   0.095   0.080  -0.220
    1UNL    H18   52  -0.031   0.376  -0.075
    1UNL    H19   53   0.109   0.391   0.136
    1UNL    H20   54   0.297   0.254   0.194
    1UNL    H21   55   0.170   0.193   0.321
    1UNL    H22   56   0.115   0.041   0.148
    1UNL    H23   57  -0.115   0.318   0.219
    1UNL    H24   58  -0.119   0.105   0.322
    1UNL    H25   59  -0.229   0.145   0.122
    1UNL    H26   60  -0.121  -0.152   0.023
    1UNL    H27   61  -0.284  -0.185  -0.160
    1UNL    H28   62  -0.448  -0.020  -0.215
    1UNL    H29   63  -0.553  -0.158  -0.165
    1UNL    H30   64  -0.454   0.060   0.017
    1UNL    H31   65  -0.473  -0.301   0.006
    1UNL    H32   66  -0.293  -0.426   0.089
    1UNL    H33   67  -0.367  -0.308   0.235
    1UNL    H34   68  -0.514  -0.098   0.139
    1UNL    H35   69  -0.177  -0.198   0.251
    1UNL    H36   70  -0.344  -0.050   0.354
    1UNL    H37   71  -0.132   0.107  -0.122
    1UNL    H38   72  -0.305   0.280  -0.040
   0.00000   0.00000   0.00000   0.00000   0.00000   0.00000   0.00000   0.00000   0.00000
Generated with MDTraj, t= 72.0
 72
    1UNL     C1    1   0.063  -0.238  -0.179
    1UNL     C2    2   0.193  -0.313  -0.179
    1UNL     C3    3   0.178  -0.454  -0.145
    1UNL     C4    4   0.311  -0.250  -0.193
    1UNL     C5    5   0.331  -0.105  -0.226
    1UNL     C6    6   0.314  -0.024  -0.098
    1UNL     O1    7   0.386  -0.076   0.012
    1UNL     C7    8   0.350   0.125  -0.132
    1UNL     C8    9   0.464   0.194  -0.073
    1UNL     C9   10   0.264   0.189  -0.208
    1UNL    C10   11   0.120   0.144  -0.242
    1UNL     O2   12   0.031   0.254  -0.235
    1UNL    C11   13   0.003   0.276  -0.098
    1UNL     O3   14   0.111   0.236  -0.008
    1UNL    C12   15   0.091   0.271   0.133
    1UNL    C13   16   0.190   0.190   0.221
    1UNL     O4   17   0.193   0.054   0.219
    1UNL    C14   18  -0.052   0.236   0.178
    1UNL     O5   19  -0.056   0.203   0.313
    1UNL    C15   20  -0.120   0.139   0.081
    1UNL     O6   21  -0.063   0.009   0.065
    1UNL    C16   22  -0.167  -0.077   0.047
    1UNL     O7   23  -0.272  -0.039  -0.044
    1UNL    C17   24  -0.364  -0.136  -0.084
    1UNL    C18   25  -0.506  -0.071  -0.089
    1UNL     O8   26  -0.519   0.036   0.005
    1UNL    C19   27  -0.352  -0.262   0.005
    1UNL     O9   28  -0.245  -0.355  -0.015
    1UNL    C20   29  -0.349  -0.215   0.160
    1UNL    O10   30  -0.477  -0.163   0.207
    1UNL    C21   31  -0.233  -0.111   0.181
    1UNL    O11   32  -0.284   0.008   0.238
    1UNL    C22   33  -0.132   0.220  -0.054
    1UNL    O12   34  -0.233   0.322  -0.034
    1UNL     H1   35   0.066  -0.182  -0.091
    1UNL     H2   36  -0.021  -0.304  -0.182
    1UNL     H3   37   0.050  -0.174  -0.265
    1UNL     H4   38   0.091  -0.499  -0.193
    1UNL     H5   39   0.153  -0.466  -0.040
    1UNL     H6   40   0.265  -0.517  -0.169
    1UNL     H7   41   0.400  -0.300  -0.162
    1UNL     H8   42   0.430  -0.102  -0.264
    1UNL     H9   43   0.263  -0.069  -0.304
    1UNL    H10   44   0.207  -0.029  -0.074
    1UNL    H11   45   0.331  -0.097   0.088
    1UNL    H12   46   0.519   0.252  -0.153
    1UNL    H13   47   0.426   0.268  -0.003
    1UNL    H14   48   0.539   0.138  -0.015
    1UNL    H15   49   0.278   0.292  -0.248
    1UNL    H16   50   0.102   0.116  -0.346
    1UNL    H17   51   0.079   0.074  -0.176
    1UNL    H18   52  -0.011   0.385  -0.085
    1UNL    H19   53   0.117   0.382   0.147
    1UNL    H20   54   0.300   0.207   0.193
    1UNL    H21   55   0.167   0.221   0.327
    1UNL    H22   56   0.104   0.024   0.178
    1UNL    H23   57  -0.107   0.327   0.178
    1UNL    H24   58  -0.135   0.147   0.328
    1UNL    H25   59  -0.216   0.122   0.120
    1UNL    H26   60  -0.121  -0.170  -0.002
    1UNL    H27   61  -0.335  -0.172  -0.187
    1UNL    H28   62  -0.527  -0.042  -0.188
    1UNL    H29   63  -0.591  -0.146  -0.056
    1UNL    H30   64  -0.436   0.086   0.009
    1UNL    H31   65  -0.441  -0.318  -0.013
    1UNL    H32   66  -0.252  -0.434   0.041
    1UNL    H33   67  -0.342  -0.302   0.225
    1UNL    H34   68  -0.496  -0.085   0.151
    1UNL    H35   69  -0.154  -0.155   0.246
    1UNL    H36   70  -0.347  -0.028   0.303
    1UNL    H37   71  -0.149   0.150  -0.133
    1UNL    H38   72  -0.318   0.287  -0.062
   0.00000   0.00000   0.00000   0.00000   0.00000   0.00000   0.00000   0.00000   0.00000
Generated with MDTraj, t= 73.0
 72
    1UNL     C1    1   0.067  -0.284  -0.159
    1UNL     C2    2   0.208  -0.336  -0.154
    1UNL     C3    3   0.226  -0.478  -0.108
    1UNL     C4    4   0.315  -0.265  -0.191
    1UNL     C5    5   0.313  -0.125  -0.232
    1UNL     C6    6   0.308  -0.021  -0.111
    1UNL     O1    7   0.370  -0.071   0.004
    1UNL     C7    8   0.351   0.117  -0.149
    1UNL     C8    9   0.494   0.143  -0.112
    1UNL     C9   10   0.274   0.200  -0.212
    1UNL    C10   11   0.128   0.172  -0.243
    1UNL     O2   12   0.047   0.290  -0.226
    1UNL    C11   13   0.004   0.303  -0.087
    1UNL     O3   14   0.095   0.234   0.001
    1UNL    C12   15   0.076   0.266   0.139
    1UNL    C13   16   0.175   0.186   0.226
    1UNL     O4   17   0.171   0.046   0.196
    1UNL    C14   18  -0.067   0.239   0.191
    1UNL     O5   19  -0.055   0.159   0.302
    1UNL    C15   20  -0.154   0.173   0.080
    1UNL     O6   21  -0.090   0.046   0.072
    1UNL    C16   22  -0.170  -0.061   0.045
    1UNL     O7   23  -0.263  -0.018  -0.052
    1UNL    C17   24  -0.358  -0.125  -0.080
    1UNL    C18   25  -0.496  -0.059  -0.073
    1UNL     O8   26  -0.516   0.015   0.044
    1UNL    C19   27  -0.345  -0.260   0.004
    1UNL     O9   28  -0.235  -0.336  -0.044
    1UNL    C20   29  -0.336  -0.225   0.160
    1UNL    O10   30  -0.462  -0.208   0.211
    1UNL    C21   31  -0.240  -0.107   0.178
    1UNL    O11   32  -0.306   0.003   0.244
    1UNL    C22   33  -0.141   0.251  -0.065
    1UNL    O12   34  -0.225   0.366  -0.065
    1UNL     H1   35   0.067  -0.206  -0.081
    1UNL     H2   36  -0.002  -0.358  -0.133
    1UNL     H3   37   0.035  -0.250  -0.254
    1UNL     H4   38   0.129  -0.527  -0.103
    1UNL     H5   39   0.256  -0.490  -0.004
    1UNL     H6   40   0.290  -0.539  -0.173
    1UNL     H7   41   0.412  -0.309  -0.173
    1UNL     H8   42   0.408  -0.103  -0.274
    1UNL     H9   43   0.240  -0.110  -0.312
    1UNL    H10   44   0.203  -0.015  -0.081
    1UNL    H11   45   0.310  -0.060   0.088
    1UNL    H12   46   0.558   0.206  -0.179
    1UNL    H13   47   0.499   0.187  -0.012
    1UNL    H14   48   0.545   0.046  -0.103
    1UNL    H15   49   0.309   0.292  -0.230
    1UNL    H16   50   0.112   0.139  -0.344
    1UNL    H17   51   0.081   0.100  -0.183
    1UNL    H18   52  -0.000   0.412  -0.064
    1UNL    H19   53   0.105   0.376   0.145
    1UNL    H20   54   0.279   0.224   0.201
    1UNL    H21   55   0.148   0.190   0.335
    1UNL    H22   56   0.091   0.032   0.147
    1UNL    H23   57  -0.110   0.332   0.219
    1UNL    H24   58  -0.122   0.084   0.302
    1UNL    H25   59  -0.254   0.168   0.111
    1UNL    H26   60  -0.106  -0.149   0.006
    1UNL    H27   61  -0.341  -0.166  -0.186
    1UNL    H28   62  -0.512   0.011  -0.152
    1UNL    H29   63  -0.582  -0.141  -0.081
    1UNL    H30   64  -0.430   0.052   0.068
    1UNL    H31   65  -0.428  -0.324  -0.005
    1UNL    H32   66  -0.225  -0.423  -0.006
    1UNL    H33   67  -0.305  -0.313   0.215
    1UNL    H34   68  -0.499  -0.127   0.166
    1UNL    H35   69  -0.153  -0.135   0.248
    1UNL    H36   70  -0.386  -0.027   0.295
    1UNL    H37   71  -0.168   0.194  -0.150
    1UNL    H38   72  -0.319   0.343  -0.065
   0.00000   0.00000   0.00000   0.00000   0.00000   0.00000   0.00000   0.00000   0.00000
Generated with MDTraj, t= 74.0
 72
    1UNL     C1    1   0.088  -0.316  -0.165
    1UNL     C2    2   0.224  -0.362  -0.130
    1UNL     C3    3   0.245  -0.497  -0.073
    1UNL     C4    4   0.333  -0.294  -0.171
    1UNL     C5    5   0.338  -0.158  -0.227
    1UNL     C6    6   0.281  -0.038  -0.126
    1UNL     O1    7   0.356  -0.064  -0.005
    1UNL     C7    8   0.333   0.096  -0.178
    1UNL     C8    9   0.484   0.110  -0.165
    1UNL     C9   10   0.267   0.200  -0.218
    1UNL    C10   11   0.124   0.216  -0.237
    1UNL     O2   12   0.067   0.338  -0.199
    1UNL    C11   13   0.021   0.338  -0.066
    1UNL     O3   14   0.126   0.302   0.024
    1UNL    C12   15   0.092   0.293   0.164
    1UNL    C13   16   0.181   0.193   0.252
    1UNL     O4   17   0.183   0.064   0.183
    1UNL    C14   18  -0.059   0.255   0.189
    1UNL     O5   19  -0.082   0.197   0.319
    1UNL    C15   20  -0.118   0.167   0.078
    1UNL     O6   21  -0.076   0.033   0.056
    1UNL    C16   22  -0.186  -0.053   0.027
    1UNL     O7   23  -0.297  -0.013  -0.055
    1UNL    C17   24  -0.397  -0.119  -0.076
    1UNL    C18   25  -0.542  -0.075  -0.073
    1UNL     O8   26  -0.574  -0.039   0.057
    1UNL    C19   27  -0.358  -0.255  -0.009
    1UNL     O9   28  -0.253  -0.311  -0.083
    1UNL    C20   29  -0.325  -0.241   0.146
    1UNL    O10   30  -0.439  -0.243   0.223
    1UNL    C21   31  -0.241  -0.103   0.162
    1UNL    O11   32  -0.317  -0.001   0.233
    1UNL    C22   33  -0.104   0.250  -0.058
    1UNL    O12   34  -0.204   0.350  -0.063
    1UNL     H1   35   0.069  -0.220  -0.112
    1UNL     H2   36   0.012  -0.381  -0.136
    1UNL     H3   37   0.069  -0.309  -0.268
    1UNL     H4   38   0.169  -0.528  -0.001
    1UNL     H5   39   0.337  -0.491  -0.014
    1UNL     H6   40   0.263  -0.563  -0.159
    1UNL     H7   41   0.432  -0.341  -0.156
    1UNL     H8   42   0.435  -0.138  -0.268
    1UNL     H9   43   0.268  -0.145  -0.306
    1UNL    H10   44   0.176  -0.045  -0.100
    1UNL    H11   45   0.307  -0.024   0.066
    1UNL    H12   46   0.547   0.131  -0.253
    1UNL    H13   47   0.497   0.185  -0.086
    1UNL    H14   48   0.519   0.012  -0.126
    1UNL    H15   49   0.330   0.296  -0.231
    1UNL    H16   50   0.089   0.191  -0.337
    1UNL    H17   51   0.072   0.148  -0.176
    1UNL    H18   52  -0.011   0.444  -0.046
    1UNL    H19   53   0.104   0.398   0.205
    1UNL    H20   54   0.288   0.221   0.269
    1UNL    H21   55   0.127   0.179   0.346
    1UNL    H22   56   0.098   0.056   0.128
    1UNL    H23   57  -0.112   0.352   0.196
    1UNL    H24   58  -0.150   0.122   0.303
    1UNL    H25   59  -0.221   0.159   0.104
    1UNL    H26   60  -0.138  -0.149  -0.020
    1UNL    H27   61  -0.377  -0.138  -0.187
    1UNL    H28   62  -0.562   0.009  -0.140
    1UNL    H29   63  -0.616  -0.165  -0.098
    1UNL    H30   64  -0.490  -0.006   0.106
    1UNL    H31   65  -0.439  -0.323  -0.007
    1UNL    H32   66  -0.234  -0.404  -0.053
    1UNL    H33   67  -0.266  -0.326   0.173
    1UNL    H34   68  -0.498  -0.171   0.191
    1UNL    H35   69  -0.149  -0.117   0.231
    1UNL    H36   70  -0.357  -0.035   0.315
    1UNL    H37   71  -0.121   0.183  -0.140
    1UNL    H38   72  -0.290   0.302  -0.055
   0.00000   0.00000   0.00000   0.00000   0.00000   0.00000   0.00000   0.00000   0.00000
Generated with MDTraj, t= 75.0
 72
    1UNL     C1    1   0.092  -0.336  -0.176
    1UNL     C2    2   0.230  -0.367  -0.130
    1UNL     C3    3   0.259  -0.488  -0.035
    1UNL     C4    4   0.336  -0.294  -0.165
    1UNL     C5    5   0.336  -0.169  -0.240
    1UNL     C6    6   0.298  -0.046  -0.148
    1UNL     O1    7   0.316  -0.065  -0.009
    1UNL     C7    8   0.359   0.087  -0.198
    1UNL     C8    9   0.504   0.085  -0.217
    1UNL     C9   10   0.285   0.194  -0.224
    1UNL    C10   11   0.144   0.204  -0.199
    1UNL     O2   12   0.074   0.327  -0.193
    1UNL    C11   13   0.017   0.336  -0.060
    1UNL     O3   14   0.105   0.273   0.039
    1UNL    C12   15   0.061   0.291   0.174
    1UNL    C13   16   0.157   0.206   0.256
    1UNL     O4   17   0.161   0.074   0.211
    1UNL    C14   18  -0.096   0.251   0.201
    1UNL     O5   19  -0.085   0.146   0.307
    1UNL    C15   20  -0.153   0.186   0.068
    1UNL     O6   21  -0.084   0.064   0.052
    1UNL    C16   22  -0.180  -0.037   0.038
    1UNL     O7   23  -0.297   0.010  -0.037
    1UNL    C17   24  -0.386  -0.095  -0.086
    1UNL    C18   25  -0.534  -0.055  -0.065
    1UNL     O8   26  -0.556  -0.048   0.079
    1UNL    C19   27  -0.349  -0.231  -0.020
    1UNL     O9   28  -0.266  -0.313  -0.099
    1UNL    C20   29  -0.305  -0.234   0.129
    1UNL    O10   30  -0.402  -0.249   0.219
    1UNL    C21   31  -0.222  -0.101   0.164
    1UNL    O11   32  -0.305  -0.023   0.253
    1UNL    C22   33  -0.122   0.272  -0.066
    1UNL    O12   34  -0.213   0.375  -0.094
    1UNL     H1   35   0.057  -0.247  -0.122
    1UNL     H2   36   0.028  -0.419  -0.159
    1UNL     H3   37   0.093  -0.325  -0.281
    1UNL     H4   38   0.212  -0.471   0.063
    1UNL     H5   39   0.364  -0.501  -0.009
    1UNL     H6   40   0.226  -0.581  -0.081
    1UNL     H7   41   0.427  -0.322  -0.122
    1UNL     H8   42   0.441  -0.145  -0.251
    1UNL     H9   43   0.291  -0.180  -0.337
    1UNL    H10   44   0.190  -0.039  -0.152
    1UNL    H11   45   0.252   0.001   0.036
    1UNL    H12   46   0.544   0.031  -0.303
    1UNL    H13   47   0.539   0.189  -0.211
    1UNL    H14   48   0.543   0.028  -0.130
    1UNL    H15   49   0.334   0.285  -0.246
    1UNL    H16   50   0.081   0.150  -0.273
    1UNL    H17   51   0.123   0.149  -0.109
    1UNL    H18   52   0.016   0.448  -0.046
    1UNL    H19   53   0.072   0.398   0.201
    1UNL    H20   54   0.259   0.242   0.238
    1UNL    H21   55   0.132   0.200   0.360
    1UNL    H22   56   0.076   0.061   0.163
    1UNL    H23   57  -0.158   0.337   0.240
    1UNL    H24   58  -0.153   0.080   0.293
    1UNL    H25   59  -0.261   0.171   0.078
    1UNL    H26   60  -0.138  -0.118  -0.034
    1UNL    H27   61  -0.372  -0.101  -0.196
    1UNL    H28   62  -0.554   0.047  -0.103
    1UNL    H29   63  -0.608  -0.130  -0.115
    1UNL    H30   64  -0.481  -0.007   0.123
    1UNL    H31   65  -0.445  -0.279  -0.014
    1UNL    H32   66  -0.265  -0.409  -0.065
    1UNL    H33   67  -0.233  -0.314   0.133
    1UNL    H34   68  -0.476  -0.188   0.197
    1UNL    H35   69  -0.138  -0.131   0.238
    1UNL    H36   70  -0.331  -0.079   0.331
    1UNL    H37   71  -0.125   0.211  -0.155
    1UNL    H38   72  -0.307   0.338  -0.098
   0.00000   0.00000   0.00000   0.00000   0.00000   0.00000   0.00000   0.00000   0.00000
Generated with MDTraj, t= 76.0
 72
    1UNL     C1    1   0.105  -0.331  -0.182
    1UNL     C2    2   0.234  -0.379  -0.123
    1UNL     C3    3   0.230  -0.478  -0.017
    1UNL     C4    4   0.348  -0.312  -0.143
    1UNL     C5    5   0.370  -0.188  -0.228
    1UNL     C6    6   0.305  -0.061  -0.158
    1UNL     O1    7   0.319  -0.078  -0.017
    1UNL     C7    8   0.344   0.075  -0.214
    1UNL     C8    9   0.496   0.097  -0.237
    1UNL     C9   10   0.261   0.174  -0.244
    1UNL    C10   11   0.122   0.185  -0.202
    1UNL     O2   12   0.079   0.323  -0.186
    1UNL    C11   13   0.019   0.340  -0.060
    1UNL     O3   14   0.108   0.290   0.036
    1UNL    C12   15   0.057   0.307   0.174
    1UNL    C13   16   0.143   0.224   0.264
    1UNL     O4   17   0.149   0.088   0.229
    1UNL    C14   18  -0.093   0.264   0.192
    1UNL     O5   19  -0.125   0.204   0.319
    1UNL    C15   20  -0.130   0.181   0.069
    1UNL     O6   21  -0.079   0.045   0.050
    1UNL    C16   22  -0.180  -0.051   0.018
    1UNL     O7   23  -0.299   0.001  -0.048
    1UNL    C17   24  -0.399  -0.104  -0.081
    1UNL    C18   25  -0.532  -0.062  -0.027
    1UNL     O8   26  -0.542   0.022   0.091
    1UNL    C19   27  -0.351  -0.245  -0.036
    1UNL     O9   28  -0.253  -0.307  -0.121
    1UNL    C20   29  -0.295  -0.254   0.108
    1UNL    O10   30  -0.393  -0.277   0.196
    1UNL    C21   31  -0.214  -0.120   0.143
    1UNL    O11   32  -0.295  -0.044   0.237
    1UNL    C22   33  -0.123   0.282  -0.052
    1UNL    O12   34  -0.207   0.397  -0.034
    1UNL     H1   35   0.074  -0.242  -0.136
    1UNL     H2   36   0.030  -0.409  -0.172
    1UNL     H3   37   0.120  -0.325  -0.287
    1UNL     H4   38   0.249  -0.424   0.077
    1UNL     H5   39   0.317  -0.543  -0.024
    1UNL     H6   40   0.147  -0.548  -0.014
    1UNL     H7   41   0.440  -0.345  -0.089
    1UNL     H8   42   0.478  -0.183  -0.240
    1UNL     H9   43   0.320  -0.197  -0.322
    1UNL    H10   44   0.199  -0.065  -0.170
    1UNL    H11   45   0.276  -0.004   0.029
    1UNL    H12   46   0.543   0.088  -0.335
    1UNL    H13   47   0.526   0.195  -0.195
    1UNL    H14   48   0.558   0.019  -0.188
    1UNL    H15   49   0.304   0.264  -0.273
    1UNL    H16   50   0.050   0.119  -0.260
    1UNL    H17   51   0.113   0.139  -0.102
    1UNL    H18   52   0.007   0.451  -0.043
    1UNL    H19   53   0.066   0.413   0.199
    1UNL    H20   54   0.244   0.259   0.262
    1UNL    H21   55   0.112   0.220   0.366
    1UNL    H22   56   0.075   0.068   0.172
    1UNL    H23   57  -0.156   0.360   0.181
    1UNL    H24   58  -0.163   0.110   0.307
    1UNL    H25   59  -0.238   0.156   0.087
    1UNL    H26   60  -0.134  -0.125  -0.058
    1UNL    H27   61  -0.402  -0.102  -0.189
    1UNL    H28   62  -0.584   0.001  -0.108
    1UNL    H29   63  -0.594  -0.153  -0.006
    1UNL    H30   64  -0.462   0.014   0.142
    1UNL    H31   65  -0.438  -0.311  -0.031
    1UNL    H32   66  -0.240  -0.403  -0.095
    1UNL    H33   67  -0.220  -0.337   0.110
    1UNL    H34   68  -0.472  -0.216   0.192
    1UNL    H35   69  -0.120  -0.136   0.205
    1UNL    H36   70  -0.335  -0.106   0.301
    1UNL    H37   71  -0.154   0.226  -0.141
    1UNL    H38   72  -0.302   0.370  -0.022
   0.00000   0.00000   0.00000   0.00000   0.00000   0.00000   0.00000   0.00000   0.00000
Generated with MDTraj, t= 77.0
 72
    1UNL     C1    1   0.104  -0.329  -0.186
    1UNL     C2    2   0.224  -0.371  -0.113
    1UNL     C3    3   0.200  -0.487  -0.027
    1UNL     C4    4   0.342  -0.306  -0.103
    1UNL     C5    5   0.371  -0.185  -0.194
    1UNL     C6    6   0.300  -0.055  -0.135
    1UNL     O1    7   0.348  -0.046   0.001
    1UNL     C7    8   0.337   0.068  -0.210
    1UNL     C8    9   0.475   0.086  -0.252
    1UNL     C9   10   0.241   0.155  -0.240
    1UNL    C10   11   0.100   0.162  -0.192
    1UNL     O2   12   0.040   0.291  -0.195
    1UNL    C11   13   0.005   0.325  -0.066
    1UNL     O3   14   0.090   0.267   0.035
    1UNL    C12   15   0.048   0.289   0.177
    1UNL    C13   16   0.140   0.209   0.264
    1UNL     O4   17   0.152   0.082   0.204
    1UNL    C14   18  -0.098   0.259   0.208
    1UNL     O5   19  -0.107   0.180   0.322
    1UNL    C15   20  -0.159   0.195   0.080
    1UNL     O6   21  -0.089   0.075   0.053
    1UNL    C16   22  -0.167  -0.031   0.006
    1UNL     O7   23  -0.291   0.018  -0.050
    1UNL    C17   24  -0.384  -0.088  -0.089
    1UNL    C18   25  -0.515  -0.038  -0.026
    1UNL     O8   26  -0.507   0.012   0.108
    1UNL    C19   27  -0.332  -0.234  -0.049
    1UNL     O9   28  -0.226  -0.290  -0.133
    1UNL    C20   29  -0.286  -0.246   0.100
    1UNL    O10   30  -0.396  -0.250   0.184
    1UNL    C21   31  -0.186  -0.124   0.129
    1UNL    O11   32  -0.251  -0.059   0.232
    1UNL    C22   33  -0.147   0.277  -0.054
    1UNL    O12   34  -0.217   0.396  -0.051
    1UNL     H1   35   0.033  -0.293  -0.121
    1UNL     H2   36   0.065  -0.408  -0.251
    1UNL     H3   37   0.126  -0.253  -0.258
    1UNL     H4   38   0.266  -0.482   0.061
    1UNL     H5   39   0.223  -0.578  -0.082
    1UNL     H6   40   0.096  -0.503  -0.002
    1UNL     H7   41   0.416  -0.343  -0.040
    1UNL     H8   42   0.476  -0.161  -0.200
    1UNL     H9   43   0.337  -0.213  -0.290
    1UNL    H10   44   0.194  -0.066  -0.122
    1UNL    H11   45   0.286  -0.000   0.067
    1UNL    H12   46   0.496   0.035  -0.345
    1UNL    H13   47   0.485   0.194  -0.272
    1UNL    H14   48   0.556   0.046  -0.187
    1UNL    H15   49   0.266   0.257  -0.290
    1UNL    H16   50   0.035   0.096  -0.259
    1UNL    H17   51   0.093   0.114  -0.091
    1UNL    H18   52   0.007   0.438  -0.061
    1UNL    H19   53   0.060   0.391   0.209
    1UNL    H20   54   0.241   0.245   0.276
    1UNL    H21   55   0.100   0.200   0.363
    1UNL    H22   56   0.068   0.063   0.147
    1UNL    H23   57  -0.151   0.359   0.226
    1UNL    H24   58  -0.130   0.092   0.294
    1UNL    H25   59  -0.266   0.170   0.106
    1UNL    H26   60  -0.106  -0.098  -0.067
    1UNL    H27   61  -0.399  -0.089  -0.195
    1UNL    H28   62  -0.561   0.053  -0.085
    1UNL    H29   63  -0.585  -0.124  -0.024
    1UNL    H30   64  -0.409   0.018   0.133
    1UNL    H31   65  -0.414  -0.311  -0.053
    1UNL    H32   66  -0.213  -0.383  -0.121
    1UNL    H33   67  -0.234  -0.345   0.108
    1UNL    H34   68  -0.443  -0.165   0.181
    1UNL    H35   69  -0.088  -0.166   0.156
    1UNL    H36   70  -0.282  -0.129   0.296
    1UNL    H37   71  -0.173   0.207  -0.139
    1UNL    H38   72  -0.313   0.385  -0.039
   0.00000   0.00000   0.00000   0.00000   0.00000   0.00000   0.00000   0.00000   0.00000
Generated with MDTraj, t= 78.0
 72
    1UNL     C1    1   0.095  -0.325  -0.197
    1UNL     C2    2   0.197  -0.364  -0.098
    1UNL     C3    3   0.166  -0.497  -0.025
    1UNL     C4    4   0.306  -0.291  -0.081
    1UNL     C5    5   0.355  -0.177  -0.151
    1UNL     C6    6   0.303  -0.046  -0.097
    1UNL     O1    7   0.380  -0.017   0.021
    1UNL     C7    8   0.316   0.063  -0.198
    1UNL     C8    9   0.460   0.085  -0.238
    1UNL     C9   10   0.232   0.161  -0.237
    1UNL    C10   11   0.090   0.153  -0.202
    1UNL     O2   12   0.023   0.279  -0.210
    1UNL    C11   13  -0.008   0.326  -0.081
    1UNL     O3   14   0.100   0.300   0.009
    1UNL    C12   15   0.075   0.302   0.155
    1UNL    C13   16   0.171   0.220   0.238
    1UNL     O4   17   0.171   0.084   0.197
    1UNL    C14   18  -0.074   0.265   0.197
    1UNL     O5   19  -0.075   0.199   0.323
    1UNL    C15   20  -0.130   0.174   0.084
    1UNL     O6   21  -0.060   0.052   0.055
    1UNL    C16   22  -0.163  -0.032   0.012
    1UNL     O7   23  -0.288   0.024  -0.040
    1UNL    C17   24  -0.373  -0.078  -0.096
    1UNL    C18   25  -0.512  -0.037  -0.040
    1UNL     O8   26  -0.506  -0.027   0.103
    1UNL    C19   27  -0.336  -0.227  -0.067
    1UNL     O9   28  -0.240  -0.267  -0.157
    1UNL    C20   29  -0.289  -0.254   0.077
    1UNL    O10   30  -0.389  -0.275   0.174
    1UNL    C21   31  -0.203  -0.128   0.127
    1UNL    O11   32  -0.266  -0.059   0.233
    1UNL    C22   33  -0.146   0.265  -0.039
    1UNL    O12   34  -0.239   0.364  -0.010
    1UNL     H1   35   0.003  -0.314  -0.145
    1UNL     H2   36   0.095  -0.399  -0.277
    1UNL     H3   37   0.111  -0.237  -0.254
    1UNL     H4   38   0.239  -0.529   0.051
    1UNL     H5   39   0.159  -0.570  -0.106
    1UNL     H6   40   0.063  -0.502   0.009
    1UNL     H7   41   0.371  -0.326   0.004
    1UNL     H8   42   0.464  -0.173  -0.146
    1UNL     H9   43   0.333  -0.176  -0.255
    1UNL    H10   44   0.200  -0.058  -0.065
    1UNL    H11   45   0.320   0.013   0.091
    1UNL    H12   46   0.500  -0.011  -0.268
    1UNL    H13   47   0.458   0.151  -0.326
    1UNL    H14   48   0.525   0.119  -0.158
    1UNL    H15   49   0.264   0.237  -0.296
    1UNL    H16   50   0.034   0.061  -0.242
    1UNL    H17   51   0.093   0.129  -0.093
    1UNL    H18   52  -0.027   0.436  -0.084
    1UNL    H19   53   0.088   0.402   0.188
    1UNL    H20   54   0.272   0.264   0.232
    1UNL    H21   55   0.153   0.214   0.346
    1UNL    H22   56   0.089   0.067   0.155
    1UNL    H23   57  -0.143   0.353   0.207
    1UNL    H24   58  -0.109   0.104   0.306
    1UNL    H25   59  -0.234   0.143   0.118
    1UNL    H26   60  -0.113  -0.096  -0.071
    1UNL    H27   61  -0.379  -0.073  -0.204
    1UNL    H28   62  -0.533   0.073  -0.081
    1UNL    H29   63  -0.596  -0.105  -0.057
    1UNL    H30   64  -0.412   0.007   0.130
    1UNL    H31   65  -0.425  -0.299  -0.070
    1UNL    H32   66  -0.253  -0.355  -0.194
    1UNL    H33   67  -0.225  -0.349   0.079
    1UNL    H34   68  -0.443  -0.193   0.175
    1UNL    H35   69  -0.104  -0.154   0.157
    1UNL    H36   70  -0.289  -0.129   0.298
    1UNL    H37   71  -0.176   0.196  -0.125
    1UNL    H38   72  -0.324   0.332   0.024
   0.00000   0.00000   0.00000   0.00000   0.00000   0.00000   0.00000   0.00000   0.00000
Generated with MDTraj, t= 79.0
 72
    1UNL     C1    1   0.078  -0.313  -0.216
    1UNL     C2    2   0.165  -0.348  -0.090
    1UNL     C3    3   0.119  -0.448   0.009
    1UNL     C4    4   0.286  -0.295  -0.075
    1UNL     C5    5   0.335  -0.183  -0.152
    1UNL     C6    6   0.298  -0.042  -0.095
    1UNL     O1    7   0.370  -0.025   0.027
    1UNL     C7    8   0.322   0.081  -0.186
    1UNL     C8    9   0.466   0.113  -0.207
    1UNL     C9   10   0.223   0.150  -0.245
    1UNL    C10   11   0.079   0.146  -0.210
    1UNL     O2   12   0.018   0.270  -0.218
    1UNL    C11   13  -0.004   0.311  -0.088
    1UNL     O3   14   0.103   0.274   0.003
    1UNL    C12   15   0.090   0.323   0.141
    1UNL    C13   16   0.208   0.284   0.228
    1UNL     O4   17   0.227   0.145   0.217
    1UNL    C14   18  -0.047   0.265   0.211
    1UNL     O5   19  -0.006   0.176   0.319
    1UNL    C15   20  -0.133   0.179   0.106
    1UNL     O6   21  -0.075   0.051   0.087
    1UNL    C16   22  -0.162  -0.046   0.025
    1UNL     O7   23  -0.276   0.014  -0.051
    1UNL    C17   24  -0.368  -0.076  -0.106
    1UNL    C18   25  -0.513  -0.037  -0.058
    1UNL     O8   26  -0.524  -0.054   0.080
    1UNL    C19   27  -0.339  -0.225  -0.077
    1UNL     O9   28  -0.261  -0.284  -0.178
    1UNL    C20   29  -0.291  -0.270   0.066
    1UNL    O10   30  -0.386  -0.298   0.166
    1UNL    C21   31  -0.205  -0.152   0.131
    1UNL    O11   32  -0.281  -0.081   0.233
    1UNL    C22   33  -0.143   0.257  -0.028
    1UNL    O12   34  -0.232   0.364  -0.016
    1UNL     H1   35   0.010  -0.398  -0.232
    1UNL     H2   36   0.144  -0.298  -0.296
    1UNL     H3   37   0.015  -0.226  -0.215
    1UNL     H4   38   0.190  -0.480   0.085
    1UNL     H5   39   0.096  -0.533  -0.055
    1UNL     H6   40   0.020  -0.426   0.049
    1UNL     H7   41   0.348  -0.330   0.001
    1UNL     H8   42   0.444  -0.187  -0.155
    1UNL     H9   43   0.300  -0.193  -0.252
    1UNL    H10   44   0.190  -0.045  -0.074
    1UNL    H11   45   0.318   0.029   0.092
    1UNL    H12   46   0.505   0.019  -0.249
    1UNL    H13   47   0.478   0.182  -0.291
    1UNL    H14   48   0.526   0.143  -0.122
    1UNL    H15   49   0.254   0.235  -0.307
    1UNL    H16   50   0.028   0.088  -0.290
    1UNL    H17   51   0.060   0.092  -0.117
    1UNL    H18   52  -0.013   0.420  -0.089
    1UNL    H19   53   0.081   0.430   0.135
    1UNL    H20   54   0.309   0.329   0.204
    1UNL    H21   55   0.193   0.315   0.334
    1UNL    H22   56   0.138   0.101   0.195
    1UNL    H23   57  -0.109   0.341   0.256
    1UNL    H24   58  -0.055   0.086   0.309
    1UNL    H25   59  -0.240   0.165   0.147
    1UNL    H26   60  -0.106  -0.107  -0.058
    1UNL    H27   61  -0.365  -0.077  -0.218
    1UNL    H28   62  -0.534   0.081  -0.072
    1UNL    H29   63  -0.592  -0.103  -0.098
    1UNL    H30   64  -0.442  -0.028   0.119
    1UNL    H31   65  -0.438  -0.282  -0.091
    1UNL    H32   66  -0.292  -0.377  -0.205
    1UNL    H33   67  -0.233  -0.367   0.060
    1UNL    H34   68  -0.450  -0.224   0.154
    1UNL    H35   69  -0.120  -0.197   0.176
    1UNL    H36   70  -0.307  -0.156   0.294
    1UNL    H37   71  -0.183   0.179  -0.101
    1UNL    H38   72  -0.322   0.338   0.014
   0.00000   0.00000   0.00000   0.00000   0.00000   0.00000   0.00000   0.00000   0.00000
Generated with MDTraj, t= 80.0
 72
    1UNL     C1    1   0.047  -0.312  -0.215
    1UNL     C2    2   0.126  -0.332  -0.096
    1UNL     C3    3   0.076  -0.409   0.027
    1UNL     C4    4   0.245  -0.275  -0.085
    1UNL     C5    5   0.305  -0.162  -0.170
    1UNL     C6    6   0.295  -0.032  -0.085
    1UNL     O1    7   0.361  -0.039   0.043
    1UNL     C7    8   0.335   0.087  -0.173
    1UNL     C8    9   0.475   0.130  -0.177
    1UNL     C9   10   0.234   0.161  -0.224
    1UNL    C10   11   0.090   0.131  -0.227
    1UNL     O2   12   0.008   0.247  -0.218
    1UNL    C11   13  -0.009   0.303  -0.087
    1UNL     O3   14   0.104   0.265  -0.004
    1UNL    C12   15   0.083   0.312   0.131
    1UNL    C13   16   0.215   0.323   0.200
    1UNL     O4   17   0.271   0.195   0.218
    1UNL    C14   18  -0.038   0.231   0.204
    1UNL     O5   19   0.017   0.140   0.303
    1UNL    C15   20  -0.117   0.158   0.099
    1UNL     O6   21  -0.056   0.035   0.078
    1UNL    C16   22  -0.155  -0.056   0.027
    1UNL     O7   23  -0.281   0.004  -0.015
    1UNL    C17   24  -0.360  -0.085  -0.096
    1UNL    C18   25  -0.510  -0.052  -0.074
    1UNL     O8   26  -0.545  -0.043   0.061
    1UNL    C19   27  -0.330  -0.241  -0.077
    1UNL     O9   28  -0.228  -0.271  -0.171
    1UNL    C20   29  -0.285  -0.275   0.072
    1UNL    O10   30  -0.400  -0.294   0.142
    1UNL    C21   31  -0.202  -0.155   0.137
    1UNL    O11   32  -0.278  -0.088   0.238
    1UNL    C22   33  -0.148   0.245  -0.027
    1UNL    O12   34  -0.225   0.362  -0.003
    1UNL     H1   35  -0.021  -0.396  -0.241
    1UNL     H2   36   0.116  -0.298  -0.291
    1UNL     H3   37  -0.013  -0.224  -0.223
    1UNL     H4   38   0.159  -0.470   0.059
    1UNL     H5   39   0.002  -0.484  -0.001
    1UNL     H6   40   0.038  -0.354   0.114
    1UNL     H7   41   0.300  -0.294   0.008
    1UNL     H8   42   0.406  -0.183  -0.203
    1UNL     H9   43   0.247  -0.144  -0.259
    1UNL    H10   44   0.186  -0.023  -0.066
    1UNL    H11   45   0.340   0.039   0.098
    1UNL    H12   46   0.526   0.066  -0.250
    1UNL    H13   47   0.489   0.226  -0.225
    1UNL    H14   48   0.536   0.134  -0.089
    1UNL    H15   49   0.266   0.245  -0.293
    1UNL    H16   50   0.070   0.061  -0.308
    1UNL    H17   51   0.064   0.073  -0.141
    1UNL    H18   52  -0.007   0.410  -0.094
    1UNL    H19   53   0.043   0.413   0.106
    1UNL    H20   54   0.288   0.388   0.144
    1UNL    H21   55   0.209   0.375   0.300
    1UNL    H22   56   0.194   0.136   0.230
    1UNL    H23   57  -0.096   0.303   0.256
    1UNL    H24   58  -0.041   0.064   0.299
    1UNL    H25   59  -0.225   0.143   0.144
    1UNL    H26   60  -0.117  -0.124  -0.062
    1UNL    H27   61  -0.326  -0.061  -0.203
    1UNL    H28   62  -0.528   0.063  -0.108
    1UNL    H29   63  -0.581  -0.126  -0.116
    1UNL    H30   64  -0.468  -0.003   0.113
    1UNL    H31   65  -0.418  -0.309  -0.098
    1UNL    H32   66  -0.237  -0.367  -0.203
    1UNL    H33   67  -0.224  -0.368   0.086
    1UNL    H34   68  -0.456  -0.219   0.115
    1UNL    H35   69  -0.111  -0.174   0.192
    1UNL    H36   70  -0.328  -0.159   0.282
    1UNL    H37   71  -0.196   0.173  -0.102
    1UNL    H38   72  -0.315   0.343   0.036
   0.00000   0.00000   0.00000   0.00000   0.00000   0.00000   0.00000   0.00000   0.00000
Generated with MDTraj, t= 81.0
 72
    1UNL     C1    1   0.065  -0.319  -0.236
    1UNL     C2    2   0.119  -0.332  -0.093
    1UNL     C3    3   0.046  -0.430  -0.013
    1UNL     C4    4   0.204  -0.247  -0.036
    1UNL     C5    5   0.279  -0.148  -0.117
    1UNL     C6    6   0.285  -0.007  -0.047
    1UNL     O1    7   0.385  -0.017   0.065
    1UNL     C7    8   0.317   0.096  -0.145
    1UNL     C8    9   0.457   0.160  -0.148
    1UNL     C9   10   0.222   0.160  -0.218
    1UNL    C10   11   0.076   0.135  -0.232
    1UNL     O2   12  -0.001   0.246  -0.222
    1UNL    C11   13  -0.009   0.297  -0.093
    1UNL     O3   14   0.107   0.283  -0.014
    1UNL    C12   15   0.097   0.308   0.131
    1UNL    C13   16   0.234   0.330   0.192
    1UNL     O4   17   0.303   0.216   0.195
    1UNL    C14   18  -0.004   0.210   0.196
    1UNL     O5   19   0.053   0.107   0.272
    1UNL    C15   20  -0.110   0.149   0.097
    1UNL     O6   21  -0.060   0.027   0.039
    1UNL    C16   22  -0.158  -0.071   0.006
    1UNL     O7   23  -0.274  -0.012  -0.062
    1UNL    C17   24  -0.375  -0.105  -0.112
    1UNL    C18   25  -0.516  -0.064  -0.060
    1UNL     O8   26  -0.511  -0.031   0.081
    1UNL    C19   27  -0.334  -0.252  -0.075
    1UNL     O9   28  -0.231  -0.307  -0.158
    1UNL    C20   29  -0.306  -0.273   0.080
    1UNL    O10   30  -0.432  -0.277   0.143
    1UNL    C21   31  -0.204  -0.157   0.130
    1UNL    O11   32  -0.260  -0.073   0.235
    1UNL    C22   33  -0.142   0.243  -0.020
    1UNL    O12   34  -0.228   0.353   0.012
    1UNL     H1   35  -0.026  -0.380  -0.239
    1UNL     H2   36   0.134  -0.351  -0.310
    1UNL     H3   37   0.034  -0.222  -0.266
    1UNL     H4   38   0.081  -0.521  -0.059
    1UNL     H5   39  -0.063  -0.431  -0.026
    1UNL     H6   40   0.080  -0.437   0.091
    1UNL     H7   41   0.230  -0.249   0.070
    1UNL     H8   42   0.380  -0.175  -0.138
    1UNL     H9   43   0.233  -0.135  -0.215
    1UNL    H10   44   0.185   0.023  -0.005
    1UNL    H11   45   0.387   0.076   0.100
    1UNL    H12   46   0.479   0.176  -0.255
    1UNL    H13   47   0.461   0.259  -0.105
    1UNL    H14   48   0.536   0.103  -0.104
    1UNL    H15   49   0.259   0.234  -0.274
    1UNL    H16   50   0.051   0.098  -0.329
    1UNL    H17   51   0.048   0.056  -0.168
    1UNL    H18   52  -0.015   0.404  -0.104
    1UNL    H19   53   0.045   0.408   0.130
    1UNL    H20   54   0.294   0.405   0.135
    1UNL    H21   55   0.224   0.377   0.293
    1UNL    H22   56   0.259   0.151   0.261
    1UNL    H23   57  -0.052   0.275   0.267
    1UNL    H24   58  -0.007   0.026   0.257
    1UNL    H25   59  -0.212   0.131   0.151
    1UNL    H26   60  -0.116  -0.154  -0.069
    1UNL    H27   61  -0.374  -0.087  -0.227
    1UNL    H28   62  -0.575   0.030  -0.109
    1UNL    H29   63  -0.581  -0.154  -0.057
    1UNL    H30   64  -0.425   0.021   0.098
    1UNL    H31   65  -0.426  -0.310  -0.094
    1UNL    H32   66  -0.207  -0.234  -0.215
    1UNL    H33   67  -0.255  -0.370   0.090
    1UNL    H34   68  -0.467  -0.186   0.123
    1UNL    H35   69  -0.114  -0.197   0.181
    1UNL    H36   70  -0.330  -0.136   0.268
    1UNL    H37   71  -0.201   0.178  -0.092
    1UNL    H38   72  -0.314   0.316   0.049
   0.00000   0.00000   0.00000   0.00000   0.00000   0.00000   0.00000   0.00000   0.00000
Generated with MDTraj, t= 82.0
 72
    1UNL     C1    1   0.120  -0.343  -0.250
    1UNL     C2    2   0.117  -0.333  -0.103
    1UNL     C3    3   0.029  -0.427  -0.024
    1UNL     C4    4   0.156  -0.225  -0.040
    1UNL     C5    5   0.241  -0.121  -0.108
    1UNL     C6    6   0.280   0.008  -0.033
    1UNL     O1    7   0.371  -0.021   0.075
    1UNL     C7    8   0.313   0.119  -0.131
    1UNL     C8    9   0.450   0.164  -0.122
    1UNL     C9   10   0.222   0.157  -0.225
    1UNL    C10   11   0.084   0.115  -0.242
    1UNL     O2   12  -0.008   0.225  -0.226
    1UNL    C11   13  -0.016   0.290  -0.095
    1UNL     O3   14   0.100   0.295  -0.016
    1UNL    C12   15   0.076   0.305   0.133
    1UNL    C13   16   0.200   0.348   0.214
    1UNL     O4   17   0.295   0.251   0.218
    1UNL    C14   18   0.003   0.181   0.184
    1UNL     O5   19   0.087   0.075   0.234
    1UNL    C15   20  -0.095   0.126   0.078
    1UNL     O6   21  -0.038   0.009   0.016
    1UNL    C16   22  -0.142  -0.078  -0.011
    1UNL     O7   23  -0.257  -0.020  -0.073
    1UNL    C17   24  -0.370  -0.107  -0.109
    1UNL    C18   25  -0.497  -0.029  -0.068
    1UNL     O8   26  -0.490   0.017   0.067
    1UNL    C19   27  -0.358  -0.249  -0.057
    1UNL     O9   28  -0.290  -0.326  -0.151
    1UNL    C20   29  -0.297  -0.266   0.084
    1UNL    O10   30  -0.402  -0.275   0.184
    1UNL    C21   31  -0.195  -0.148   0.116
    1UNL    O11   32  -0.252  -0.055   0.217
    1UNL    C22   33  -0.142   0.227  -0.020
    1UNL    O12   34  -0.212   0.332   0.048
    1UNL     H1   35   0.084  -0.441  -0.271
    1UNL     H2   36   0.222  -0.324  -0.287
    1UNL     H3   37   0.051  -0.275  -0.293
    1UNL     H4   38   0.036  -0.523  -0.074
    1UNL     H5   39  -0.078  -0.403  -0.027
    1UNL     H6   40   0.069  -0.449   0.075
    1UNL     H7   41   0.137  -0.213   0.063
    1UNL     H8   42   0.331  -0.155  -0.152
    1UNL     H9   43   0.180  -0.101  -0.198
    1UNL    H10   44   0.182   0.036   0.017
    1UNL    H11   45   0.380   0.071   0.111
    1UNL    H12   46   0.459   0.236  -0.205
    1UNL    H13   47   0.470   0.211  -0.027
    1UNL    H14   48   0.515   0.079  -0.136
    1UNL    H15   49   0.255   0.229  -0.307
    1UNL    H16   50   0.080   0.056  -0.333
    1UNL    H17   51   0.055   0.046  -0.168
    1UNL    H18   52  -0.036   0.393  -0.119
    1UNL    H19   53   0.003   0.393   0.137
    1UNL    H20   54   0.238   0.436   0.162
    1UNL    H21   55   0.173   0.383   0.314
    1UNL    H22   56   0.249   0.173   0.246
    1UNL    H23   57  -0.051   0.213   0.273
    1UNL    H24   58   0.075  -0.004   0.182
    1UNL    H25   59  -0.193   0.087   0.130
    1UNL    H26   60  -0.101  -0.161  -0.085
    1UNL    H27   61  -0.367  -0.111  -0.225
    1UNL    H28   62  -0.502   0.071  -0.132
    1UNL    H29   63  -0.593  -0.088  -0.074
    1UNL    H30   64  -0.402  -0.003   0.107
    1UNL    H31   65  -0.456  -0.292  -0.046
    1UNL    H32   66  -0.264  -0.417  -0.126
    1UNL    H33   67  -0.248  -0.362   0.079
    1UNL    H34   68  -0.466  -0.205   0.167
    1UNL    H35   69  -0.100  -0.178   0.172
    1UNL    H36   70  -0.277  -0.118   0.287
    1UNL    H37   71  -0.202   0.178  -0.101
    1UNL    H38   72  -0.292   0.297   0.090
   0.00000   0.00000   0.00000   0.00000   0.00000   0.00000   0.00000   0.00000   0.00000
Generated with MDTraj, t= 83.0
 72
    1UNL     C1    1   0.147  -0.396  -0.247
    1UNL     C2    2   0.119  -0.349  -0.109
    1UNL     C3    3   0.024  -0.422  -0.019
    1UNL     C4    4   0.171  -0.234  -0.064
    1UNL     C5    5   0.259  -0.127  -0.126
    1UNL     C6    6   0.257   0.007  -0.054
    1UNL     O1    7   0.340  -0.007   0.069
    1UNL     C7    8   0.310   0.121  -0.133
    1UNL     C8    9   0.452   0.173  -0.104
    1UNL     C9   10   0.236   0.182  -0.224
    1UNL    C10   11   0.097   0.164  -0.247
    1UNL     O2   12   0.013   0.282  -0.227
    1UNL    C11   13  -0.009   0.309  -0.084
    1UNL     O3   14   0.103   0.288  -0.003
    1UNL    C12   15   0.073   0.308   0.136
    1UNL    C13   16   0.202   0.374   0.202
    1UNL     O4   17   0.297   0.271   0.232
    1UNL    C14   18   0.012   0.175   0.192
    1UNL     O5   19   0.114   0.076   0.219
    1UNL    C15   20  -0.089   0.120   0.084
    1UNL     O6   21  -0.040  -0.006   0.020
    1UNL    C16   22  -0.150  -0.098  -0.010
    1UNL     O7   23  -0.262  -0.029  -0.068
    1UNL    C17   24  -0.373  -0.112  -0.113
    1UNL    C18   25  -0.493  -0.028  -0.069
    1UNL     O8   26  -0.488   0.005   0.067
    1UNL    C19   27  -0.380  -0.254  -0.051
    1UNL     O9   28  -0.325  -0.353  -0.140
    1UNL    C20   29  -0.331  -0.267   0.094
    1UNL    O10   30  -0.426  -0.233   0.196
    1UNL    C21   31  -0.206  -0.178   0.112
    1UNL    O11   32  -0.211  -0.083   0.220
    1UNL    C22   33  -0.133   0.222  -0.025
    1UNL    O12   34  -0.223   0.314   0.032
    1UNL     H1   35   0.137  -0.501  -0.242
    1UNL     H2   36   0.250  -0.376  -0.284
    1UNL     H3   37   0.075  -0.368  -0.319
    1UNL     H4   38   0.049  -0.528  -0.024
    1UNL     H5   39  -0.077  -0.412  -0.057
    1UNL     H6   40   0.030  -0.400   0.088
    1UNL     H7   41   0.143  -0.197   0.038
    1UNL     H8   42   0.352  -0.178  -0.127
    1UNL     H9   43   0.235  -0.113  -0.233
    1UNL    H10   44   0.149   0.027  -0.032
    1UNL    H11   45   0.333   0.082   0.111
    1UNL    H12   46   0.508   0.202  -0.192
    1UNL    H13   47   0.463   0.252  -0.031
    1UNL    H14   48   0.505   0.093  -0.053
    1UNL    H15   49   0.286   0.270  -0.265
    1UNL    H16   50   0.087   0.151  -0.355
    1UNL    H17   51   0.065   0.070  -0.208
    1UNL    H18   52  -0.037   0.414  -0.068
    1UNL    H19   53  -0.005   0.387   0.143
    1UNL    H20   54   0.242   0.458   0.146
    1UNL    H21   55   0.165   0.412   0.296
    1UNL    H22   56   0.243   0.197   0.277
    1UNL    H23   57  -0.045   0.187   0.290
    1UNL    H24   58   0.115   0.010   0.145
    1UNL    H25   59  -0.190   0.089   0.130
    1UNL    H26   60  -0.106  -0.175  -0.089
    1UNL    H27   61  -0.379  -0.114  -0.228
    1UNL    H28   62  -0.487   0.075  -0.125
    1UNL    H29   63  -0.586  -0.087  -0.092
    1UNL    H30   64  -0.398  -0.005   0.097
    1UNL    H31   65  -0.481  -0.281  -0.028
    1UNL    H32   66  -0.394  -0.397  -0.201
    1UNL    H33   67  -0.315  -0.373   0.109
    1UNL    H34   68  -0.482  -0.156   0.167
    1UNL    H35   69  -0.123  -0.251   0.145
    1UNL    H36   70  -0.256  -0.130   0.295
    1UNL    H37   71  -0.178   0.170  -0.109
    1UNL    H38   72  -0.307   0.274   0.052
   0.00000   0.00000   0.00000   0.00000   0.00000   0.00000   0.00000   0.00000   0.00000
Generated with MDTraj, t= 84.0
 72
    1UNL     C1    1   0.191  -0.389  -0.242
    1UNL     C2    2   0.141  -0.340  -0.112
    1UNL     C3    3   0.060  -0.434  -0.026
    1UNL     C4    4   0.174  -0.222  -0.059
    1UNL     C5    5   0.252  -0.119  -0.141
    1UNL     C6    6   0.231   0.012  -0.073
    1UNL     O1    7   0.285  -0.002   0.057
    1UNL     C7    8   0.300   0.130  -0.146
    1UNL     C8    9   0.444   0.137  -0.126
    1UNL     C9   10   0.237   0.207  -0.233
    1UNL    C10   11   0.098   0.194  -0.264
    1UNL     O2   12   0.028   0.304  -0.219
    1UNL    C11   13   0.004   0.300  -0.080
    1UNL     O3   14   0.118   0.297  -0.000
    1UNL    C12   15   0.080   0.302   0.142
    1UNL    C13   16   0.210   0.337   0.223
    1UNL     O4   17   0.300   0.229   0.218
    1UNL    C14   18   0.003   0.179   0.192
    1UNL     O5   19   0.097   0.076   0.244
    1UNL    C15   20  -0.090   0.116   0.080
    1UNL     O6   21  -0.040  -0.020   0.046
    1UNL    C16   22  -0.153  -0.097   0.009
    1UNL     O7   23  -0.262  -0.021  -0.045
    1UNL    C17   24  -0.374  -0.099  -0.094
    1UNL    C18   25  -0.505  -0.023  -0.053
    1UNL     O8   26  -0.500   0.031   0.078
    1UNL    C19   27  -0.374  -0.249  -0.045
    1UNL     O9   28  -0.300  -0.330  -0.145
    1UNL    C20   29  -0.327  -0.270   0.106
    1UNL    O10   30  -0.432  -0.241   0.197
    1UNL    C21   31  -0.208  -0.169   0.133
    1UNL    O11   32  -0.248  -0.069   0.227
    1UNL    C22   33  -0.117   0.198  -0.049
    1UNL    O12   34  -0.240   0.266  -0.044
    1UNL     H1   35   0.165  -0.490  -0.245
    1UNL     H2   36   0.302  -0.375  -0.238
    1UNL     H3   37   0.148  -0.339  -0.326
    1UNL     H4   38   0.098  -0.536  -0.041
    1UNL     H5   39  -0.039  -0.435  -0.068
    1UNL     H6   40   0.059  -0.413   0.081
    1UNL     H7   41   0.146  -0.188   0.035
    1UNL     H8   42   0.357  -0.137  -0.148
    1UNL     H9   43   0.211  -0.133  -0.243
    1UNL    H10   44   0.122   0.034  -0.061
    1UNL    H11   45   0.274   0.083   0.100
    1UNL    H12   46   0.494   0.110  -0.216
    1UNL    H13   47   0.483   0.234  -0.096
    1UNL    H14   48   0.476   0.074  -0.042
    1UNL    H15   49   0.289   0.291  -0.260
    1UNL    H16   50   0.088   0.177  -0.375
    1UNL    H17   51   0.047   0.112  -0.216
    1UNL    H18   52  -0.032   0.403  -0.051
    1UNL    H19   53   0.017   0.388   0.160
    1UNL    H20   54   0.254   0.416   0.165
    1UNL    H21   55   0.200   0.375   0.325
    1UNL    H22   56   0.279   0.178   0.295
    1UNL    H23   57  -0.056   0.205   0.289
    1UNL    H24   58   0.074  -0.014   0.220
    1UNL    H25   59  -0.195   0.096   0.126
    1UNL    H26   60  -0.114  -0.171  -0.073
    1UNL    H27   61  -0.366  -0.098  -0.208
    1UNL    H28   62  -0.510   0.067  -0.127
    1UNL    H29   63  -0.592  -0.095  -0.061
    1UNL    H30   64  -0.401   0.035   0.107
    1UNL    H31   65  -0.475  -0.284  -0.045
    1UNL    H32   66  -0.203  -0.316  -0.125
    1UNL    H33   67  -0.305  -0.375   0.114
    1UNL    H34   68  -0.455  -0.147   0.181
    1UNL    H35   69  -0.123  -0.234   0.177
    1UNL    H36   70  -0.307  -0.107   0.295
    1UNL    H37   71  -0.127   0.124  -0.126
    1UNL    H38   72  -0.313   0.206  -0.068
   0.00000   0.00000   0.00000   0.00000   0.00000   0.00000   0.00000   0.00000   0.00000
Generated with MDTraj, t= 85.0
 72
    1UNL     C1    1   0.217  -0.386  -0.246
    1UNL     C2    2   0.150  -0.354  -0.120
    1UNL     C3    3   0.127  -0.469  -0.028
    1UNL     C4    4   0.144  -0.226  -0.082
    1UNL     C5    5   0.189  -0.110  -0.174
    1UNL     C6    6   0.225   0.019  -0.095
    1UNL     O1    7   0.294  -0.015   0.025
    1UNL     C7    8   0.312   0.123  -0.165
    1UNL     C8    9   0.457   0.120  -0.148
    1UNL     C9   10   0.255   0.213  -0.245
    1UNL    C10   11   0.112   0.211  -0.276
    1UNL     O2   12   0.040   0.315  -0.219
    1UNL    C11   13   0.012   0.304  -0.077
    1UNL     O3   14   0.126   0.281   0.009
    1UNL    C12   15   0.090   0.304   0.144
    1UNL    C13   16   0.218   0.326   0.229
    1UNL     O4   17   0.288   0.211   0.264
    1UNL    C14   18  -0.010   0.210   0.199
    1UNL     O5   19   0.063   0.109   0.265
    1UNL    C15   20  -0.102   0.129   0.089
    1UNL     O6   21  -0.059  -0.010   0.076
    1UNL    C16   22  -0.163  -0.094   0.027
    1UNL     O7   23  -0.252  -0.034  -0.064
    1UNL    C17   24  -0.375  -0.100  -0.097
    1UNL    C18   25  -0.495  -0.014  -0.048
    1UNL     O8   26  -0.496   0.005   0.094
    1UNL    C19   27  -0.376  -0.246  -0.040
    1UNL     O9   28  -0.279  -0.320  -0.121
    1UNL    C20   29  -0.332  -0.267   0.112
    1UNL    O10   30  -0.444  -0.258   0.197
    1UNL    C21   31  -0.224  -0.152   0.152
    1UNL    O11   32  -0.293  -0.058   0.243
    1UNL    C22   33  -0.103   0.194  -0.055
    1UNL    O12   34  -0.225   0.257  -0.075
    1UNL     H1   35   0.169  -0.475  -0.279
    1UNL     H2   36   0.323  -0.398  -0.226
    1UNL     H3   37   0.198  -0.309  -0.320
    1UNL     H4   38   0.187  -0.556  -0.060
    1UNL     H5   39   0.026  -0.506  -0.047
    1UNL     H6   40   0.146  -0.446   0.076
    1UNL     H7   41   0.099  -0.189   0.013
    1UNL     H8   42   0.267  -0.147  -0.237
    1UNL     H9   43   0.112  -0.081  -0.248
    1UNL    H10   44   0.135   0.077  -0.065
    1UNL    H11   45   0.299   0.064   0.089
    1UNL    H12   46   0.496   0.096  -0.246
    1UNL    H13   47   0.492   0.220  -0.122
    1UNL    H14   48   0.484   0.056  -0.062
    1UNL    H15   49   0.327   0.294  -0.287
    1UNL    H16   50   0.092   0.225  -0.388
    1UNL    H17   51   0.075   0.113  -0.248
    1UNL    H18   52  -0.014   0.411  -0.049
    1UNL    H19   53   0.038   0.397   0.148
    1UNL    H20   54   0.286   0.393   0.180
    1UNL    H21   55   0.187   0.373   0.323
    1UNL    H22   56   0.221   0.165   0.328
    1UNL    H23   57  -0.085   0.262   0.272
    1UNL    H24   58   0.103   0.043   0.201
    1UNL    H25   59  -0.213   0.135   0.124
    1UNL    H26   60  -0.114  -0.175  -0.040
    1UNL    H27   61  -0.373  -0.110  -0.208
    1UNL    H28   62  -0.494   0.090  -0.101
    1UNL    H29   63  -0.589  -0.079  -0.064
    1UNL    H30   64  -0.403   0.024   0.122
    1UNL    H31   65  -0.475  -0.287  -0.059
    1UNL    H32   66  -0.258  -0.271  -0.204
    1UNL    H33   67  -0.287  -0.366   0.124
    1UNL    H34   68  -0.485  -0.170   0.175
    1UNL    H35   69  -0.140  -0.199   0.211
    1UNL    H36   70  -0.353  -0.101   0.306
    1UNL    H37   71  -0.097   0.119  -0.129
    1UNL    H38   72  -0.303   0.199  -0.055
   0.00000   0.00000   0.00000   0.00000   0.00000   0.00000   0.00000   0.00000   0.00000
Generated with MDTraj, t= 86.0
 72
    1UNL     C1    1   0.235  -0.397  -0.260
    1UNL     C2    2   0.175  -0.358  -0.129
    1UNL     C3    3   0.136  -0.458  -0.027
    1UNL     C4    4   0.162  -0.229  -0.094
    1UNL     C5    5   0.212  -0.106  -0.172
    1UNL     C6    6   0.231   0.022  -0.090
    1UNL     O1    7   0.301  -0.021   0.027
    1UNL     C7    8   0.309   0.122  -0.169
    1UNL     C8    9   0.459   0.111  -0.150
    1UNL     C9   10   0.252   0.208  -0.260
    1UNL    C10   11   0.098   0.210  -0.270
    1UNL     O2   12   0.051   0.331  -0.209
    1UNL    C11   13   0.016   0.312  -0.076
    1UNL     O3   14   0.125   0.269   0.006
    1UNL    C12   15   0.096   0.296   0.146
    1UNL    C13   16   0.228   0.298   0.231
    1UNL     O4   17   0.292   0.172   0.222
    1UNL    C14   18  -0.017   0.212   0.199
    1UNL     O5   19   0.031   0.109   0.288
    1UNL    C15   20  -0.097   0.141   0.078
    1UNL     O6   21  -0.056   0.008   0.054
    1UNL    C16   22  -0.173  -0.073   0.032
    1UNL     O7   23  -0.285  -0.016  -0.031
    1UNL    C17   24  -0.377  -0.108  -0.095
    1UNL    C18   25  -0.520  -0.054  -0.074
    1UNL     O8   26  -0.531  -0.007   0.059
    1UNL    C19   27  -0.358  -0.251  -0.026
    1UNL     O9   28  -0.260  -0.331  -0.098
    1UNL    C20   29  -0.328  -0.252   0.125
    1UNL    O10   30  -0.445  -0.250   0.192
    1UNL    C21   31  -0.224  -0.139   0.164
    1UNL    O11   32  -0.291  -0.047   0.253
    1UNL    C22   33  -0.110   0.214  -0.054
    1UNL    O12   34  -0.221   0.294  -0.051
    1UNL     H1   35   0.255  -0.504  -0.263
    1UNL     H2   36   0.319  -0.344  -0.290
    1UNL     H3   37   0.158  -0.390  -0.337
    1UNL     H4   38   0.161  -0.562  -0.057
    1UNL     H5   39   0.028  -0.463  -0.021
    1UNL     H6   40   0.177  -0.441   0.071
    1UNL     H7   41   0.105  -0.199  -0.011
    1UNL     H8   42   0.306  -0.118  -0.224
    1UNL     H9   43   0.148  -0.088  -0.259
    1UNL    H10   44   0.135   0.061  -0.053
    1UNL    H11   45   0.291   0.050   0.092
    1UNL    H12   46   0.508   0.130  -0.245
    1UNL    H13   47   0.491   0.188  -0.080
    1UNL    H14   48   0.487   0.016  -0.102
    1UNL    H15   49   0.318   0.258  -0.320
    1UNL    H16   50   0.081   0.208  -0.383
    1UNL    H17   51   0.050   0.124  -0.224
    1UNL    H18   52  -0.012   0.413  -0.034
    1UNL    H19   53   0.060   0.398   0.145
    1UNL    H20   54   0.294   0.375   0.192
    1UNL    H21   55   0.217   0.322   0.339
    1UNL    H22   56   0.226   0.116   0.259
    1UNL    H23   57  -0.095   0.277   0.255
    1UNL    H24   58  -0.035   0.039   0.298
    1UNL    H25   59  -0.204   0.128   0.127
    1UNL    H26   60  -0.142  -0.150  -0.048
    1UNL    H27   61  -0.349  -0.117  -0.200
    1UNL    H28   62  -0.544   0.043  -0.131
    1UNL    H29   63  -0.604  -0.135  -0.083
    1UNL    H30   64  -0.441   0.005   0.087
    1UNL    H31   65  -0.455  -0.303  -0.039
    1UNL    H32   66  -0.267  -0.318  -0.191
    1UNL    H33   67  -0.282  -0.346   0.163
    1UNL    H34   68  -0.488  -0.164   0.172
    1UNL    H35   69  -0.141  -0.186   0.219
    1UNL    H36   70  -0.357  -0.088   0.317
    1UNL    H37   71  -0.125   0.137  -0.127
    1UNL    H38   72  -0.299   0.243  -0.020
   0.00000   0.00000   0.00000   0.00000   0.00000   0.00000   0.00000   0.00000   0.00000
Generated with MDTraj, t= 87.0
 72
    1UNL     C1    1   0.243  -0.434  -0.252
    1UNL     C2    2   0.176  -0.365  -0.140
    1UNL     C3    3   0.106  -0.450  -0.041
    1UNL     C4    4   0.177  -0.233  -0.110
    1UNL     C5    5   0.237  -0.120  -0.189
    1UNL     C6    6   0.256  -0.004  -0.091
    1UNL     O1    7   0.347  -0.039   0.016
    1UNL     C7    8   0.317   0.122  -0.164
    1UNL     C8    9   0.456   0.141  -0.157
    1UNL     C9   10   0.238   0.205  -0.240
    1UNL    C10   11   0.089   0.198  -0.250
    1UNL     O2   12   0.023   0.320  -0.212
    1UNL    C11   13   0.001   0.311  -0.078
    1UNL     O3   14   0.110   0.264  -0.000
    1UNL    C12   15   0.093   0.288   0.141
    1UNL    C13   16   0.229   0.263   0.211
    1UNL     O4   17   0.255   0.130   0.245
    1UNL    C14   18  -0.035   0.217   0.204
    1UNL     O5   19   0.014   0.109   0.284
    1UNL    C15   20  -0.117   0.153   0.082
    1UNL     O6   21  -0.054   0.029   0.042
    1UNL    C16   22  -0.164  -0.060   0.022
    1UNL     O7   23  -0.273  -0.016  -0.052
    1UNL    C17   24  -0.365  -0.117  -0.090
    1UNL    C18   25  -0.507  -0.074  -0.077
    1UNL     O8   26  -0.555  -0.031   0.048
    1UNL    C19   27  -0.336  -0.251  -0.016
    1UNL     O9   28  -0.236  -0.335  -0.072
    1UNL    C20   29  -0.314  -0.239   0.136
    1UNL    O10   30  -0.434  -0.222   0.194
    1UNL    C21   31  -0.218  -0.115   0.157
    1UNL    O11   32  -0.276  -0.018   0.238
    1UNL    C22   33  -0.140   0.246  -0.034
    1UNL    O12   34  -0.232   0.349  -0.014
    1UNL     H1   35   0.253  -0.543  -0.239
    1UNL     H2   36   0.335  -0.392  -0.280
    1UNL     H3   37   0.173  -0.427  -0.334
    1UNL     H4   38   0.083  -0.544  -0.091
    1UNL     H5   39   0.009  -0.416  -0.007
    1UNL     H6   40   0.163  -0.481   0.046
    1UNL     H7   41   0.105  -0.200  -0.034
    1UNL     H8   42   0.333  -0.144  -0.238
    1UNL     H9   43   0.184  -0.087  -0.278
    1UNL    H10   44   0.159   0.013  -0.046
    1UNL    H11   45   0.329   0.017   0.098
    1UNL    H12   46   0.496   0.173  -0.253
    1UNL    H13   47   0.483   0.213  -0.080
    1UNL    H14   48   0.508   0.051  -0.120
    1UNL    H15   49   0.293   0.274  -0.306
    1UNL    H16   50   0.059   0.188  -0.358
    1UNL    H17   51   0.051   0.113  -0.193
    1UNL    H18   52  -0.006   0.416  -0.041
    1UNL    H19   53   0.074   0.398   0.142
    1UNL    H20   54   0.316   0.298   0.153
    1UNL    H21   55   0.233   0.329   0.302
    1UNL    H22   56   0.212   0.100   0.334
    1UNL    H23   57  -0.100   0.285   0.268
    1UNL    H24   58   0.063   0.044   0.227
    1UNL    H25   59  -0.221   0.129   0.131
    1UNL    H26   60  -0.122  -0.146  -0.040
    1UNL    H27   61  -0.342  -0.122  -0.194
    1UNL    H28   62  -0.520   0.021  -0.136
    1UNL    H29   63  -0.592  -0.154  -0.103
    1UNL    H30   64  -0.496   0.048   0.077
    1UNL    H31   65  -0.436  -0.302  -0.027
    1UNL    H32   66  -0.247  -0.353  -0.166
    1UNL    H33   67  -0.265  -0.333   0.175
    1UNL    H34   68  -0.479  -0.148   0.149
    1UNL    H35   69  -0.135  -0.161   0.205
    1UNL    H36   70  -0.334  -0.051   0.307
    1UNL    H37   71  -0.181   0.189  -0.114
    1UNL    H38   72  -0.310   0.326   0.037
   0.00000   0.00000   0.00000   0.00000   0.00000   0.00000   0.00000   0.00000   0.00000
Generated with MDTraj, t= 88.0
 72
    1UNL     C1    1   0.252  -0.422  -0.245
    1UNL     C2    2   0.154  -0.370  -0.141
    1UNL     C3    3   0.059  -0.461  -0.080
    1UNL     C4    4   0.169  -0.242  -0.102
    1UNL     C5    5   0.257  -0.140  -0.167
    1UNL     C6    6   0.277  -0.010  -0.094
    1UNL     O1    7   0.359  -0.032   0.016
    1UNL     C7    8   0.314   0.108  -0.175
    1UNL     C8    9   0.454   0.161  -0.173
    1UNL     C9   10   0.216   0.181  -0.231
    1UNL    C10   11   0.069   0.156  -0.231
    1UNL     O2   12  -0.001   0.280  -0.207
    1UNL    C11   13  -0.004   0.319  -0.075
    1UNL     O3   14   0.110   0.283   0.005
    1UNL    C12   15   0.091   0.294   0.148
    1UNL    C13   16   0.218   0.258   0.222
    1UNL     O4   17   0.249   0.125   0.213
    1UNL    C14   18  -0.038   0.225   0.209
    1UNL     O5   19  -0.001   0.118   0.296
    1UNL    C15   20  -0.131   0.169   0.083
    1UNL     O6   21  -0.068   0.045   0.033
    1UNL    C16   22  -0.161  -0.057   0.014
    1UNL     O7   23  -0.268  -0.025  -0.076
    1UNL    C17   24  -0.352  -0.139  -0.097
    1UNL    C18   25  -0.500  -0.088  -0.092
    1UNL     O8   26  -0.525   0.003   0.022
    1UNL    C19   27  -0.319  -0.269  -0.013
    1UNL     O9   28  -0.216  -0.350  -0.062
    1UNL    C20   29  -0.299  -0.241   0.140
    1UNL    O10   30  -0.415  -0.238   0.217
    1UNL    C21   31  -0.211  -0.111   0.154
    1UNL    O11   32  -0.287  -0.009   0.216
    1UNL    C22   33  -0.147   0.281  -0.018
    1UNL    O12   34  -0.200   0.406   0.029
    1UNL     H1   35   0.202  -0.508  -0.289
    1UNL     H2   36   0.352  -0.442  -0.207
    1UNL     H3   37   0.251  -0.354  -0.327
    1UNL     H4   38   0.043  -0.541  -0.151
    1UNL     H5   39  -0.036  -0.409  -0.068
    1UNL     H6   40   0.094  -0.505   0.014
    1UNL     H7   41   0.100  -0.203  -0.028
    1UNL     H8   42   0.359  -0.177  -0.190
    1UNL     H9   43   0.223  -0.120  -0.267
    1UNL    H10   44   0.180   0.014  -0.050
    1UNL    H11   45   0.332   0.025   0.091
    1UNL    H12   46   0.508   0.160  -0.269
    1UNL    H13   47   0.472   0.253  -0.117
    1UNL    H14   48   0.510   0.099  -0.102
    1UNL    H15   49   0.268   0.270  -0.282
    1UNL    H16   50   0.039   0.118  -0.330
    1UNL    H17   51   0.027   0.083  -0.164
    1UNL    H18   52   0.023   0.424  -0.081
    1UNL    H19   53   0.076   0.408   0.154
    1UNL    H20   54   0.300   0.317   0.180
    1UNL    H21   55   0.219   0.289   0.331
    1UNL    H22   56   0.179   0.064   0.233
    1UNL    H23   57  -0.093   0.299   0.270
    1UNL    H24   58  -0.085   0.073   0.316
    1UNL    H25   59  -0.240   0.152   0.121
    1UNL    H26   60  -0.101  -0.133  -0.045
    1UNL    H27   61  -0.330  -0.156  -0.199
    1UNL    H28   62  -0.540  -0.024  -0.171
    1UNL    H29   63  -0.566  -0.184  -0.075
    1UNL    H30   64  -0.447   0.019   0.073
    1UNL    H31   65  -0.417  -0.326  -0.019
    1UNL    H32   66  -0.226  -0.395  -0.153
    1UNL    H33   67  -0.237  -0.328   0.178
    1UNL    H34   68  -0.484  -0.185   0.171
    1UNL    H35   69  -0.125  -0.139   0.208
    1UNL    H36   70  -0.335  -0.040   0.299
    1UNL    H37   71  -0.207   0.243  -0.101
    1UNL    H38   72  -0.274   0.391   0.091
   0.00000   0.00000   0.00000   0.00000   0.00000   0.00000   0.00000   0.00000   0.00000
Generated with MDTraj, t= 89.0
 72
    1UNL     C1    1   0.249  -0.415  -0.264
    1UNL     C2    2   0.167  -0.373  -0.151
    1UNL     C3    3   0.080  -0.478  -0.074
    1UNL     C4    4   0.173  -0.248  -0.103
    1UNL     C5    5   0.257  -0.152  -0.170
    1UNL     C6    6   0.274  -0.030  -0.080
    1UNL     O1    7   0.366  -0.049   0.030
    1UNL     C7    8   0.313   0.091  -0.169
    1UNL     C8    9   0.449   0.122  -0.197
    1UNL     C9   10   0.215   0.166  -0.229
    1UNL    C10   11   0.071   0.149  -0.214
    1UNL     O2   12  -0.006   0.271  -0.208
    1UNL    C11   13  -0.009   0.324  -0.083
    1UNL     O3   14   0.096   0.286   0.008
    1UNL    C12   15   0.079   0.312   0.148
    1UNL    C13   16   0.215   0.286   0.222
    1UNL     O4   17   0.248   0.148   0.214
    1UNL    C14   18  -0.047   0.244   0.210
    1UNL     O5   19  -0.011   0.139   0.298
    1UNL    C15   20  -0.124   0.180   0.086
    1UNL     O6   21  -0.067   0.052   0.048
    1UNL    C16   22  -0.157  -0.051   0.018
    1UNL     O7   23  -0.264  -0.015  -0.066
    1UNL    C17   24  -0.351  -0.126  -0.108
    1UNL    C18   25  -0.493  -0.079  -0.088
    1UNL     O8   26  -0.514  -0.031   0.048
    1UNL    C19   27  -0.325  -0.272  -0.032
    1UNL     O9   28  -0.212  -0.335  -0.086
    1UNL    C20   29  -0.296  -0.238   0.127
    1UNL    O10   30  -0.415  -0.241   0.209
    1UNL    C21   31  -0.211  -0.109   0.148
    1UNL    O11   32  -0.292  -0.014   0.216
    1UNL    C22   33  -0.152   0.283  -0.022
    1UNL    O12   34  -0.196   0.410   0.044
    1UNL     H1   35   0.175  -0.446  -0.335
    1UNL     H2   36   0.322  -0.496  -0.243
    1UNL     H3   37   0.294  -0.339  -0.321
    1UNL     H4   38   0.006  -0.510  -0.145
    1UNL     H5   39   0.024  -0.437   0.010
    1UNL     H6   40   0.138  -0.567  -0.048
    1UNL     H7   41   0.109  -0.219  -0.025
    1UNL     H8   42   0.361  -0.184  -0.201
    1UNL     H9   43   0.215  -0.127  -0.265
    1UNL    H10   44   0.179  -0.014  -0.029
    1UNL    H11   45   0.332   0.012   0.103
    1UNL    H12   46   0.477   0.087  -0.300
    1UNL    H13   47   0.474   0.224  -0.169
    1UNL    H14   48   0.498   0.071  -0.113
    1UNL    H15   49   0.247   0.244  -0.284
    1UNL    H16   50   0.027   0.091  -0.294
    1UNL    H17   51   0.042   0.088  -0.131
    1UNL    H18   52  -0.002   0.430  -0.084
    1UNL    H19   53   0.053   0.424   0.156
    1UNL    H20   54   0.300   0.346   0.188
    1UNL    H21   55   0.209   0.320   0.329
    1UNL    H22   56   0.172   0.090   0.252
    1UNL    H23   57  -0.098   0.316   0.271
    1UNL    H24   58  -0.066   0.066   0.278
    1UNL    H25   59  -0.233   0.156   0.125
    1UNL    H26   60  -0.099  -0.123  -0.046
    1UNL    H27   61  -0.331  -0.123  -0.213
    1UNL    H28   62  -0.514   0.004  -0.156
    1UNL    H29   63  -0.569  -0.166  -0.094
    1UNL    H30   64  -0.435   0.008   0.087
    1UNL    H31   65  -0.419  -0.333  -0.041
    1UNL    H32   66  -0.216  -0.373  -0.180
    1UNL    H33   67  -0.235  -0.323   0.170
    1UNL    H34   68  -0.475  -0.175   0.171
    1UNL    H35   69  -0.128  -0.125   0.214
    1UNL    H36   70  -0.321  -0.055   0.299
    1UNL    H37   71  -0.234   0.247  -0.091
    1UNL    H38   72  -0.273   0.391   0.103
   0.00000   0.00000   0.00000   0.00000   0.00000   0.00000   0.00000   0.00000   0.00000
Generated with MDTraj, t= 90.0
 72
    1UNL     C1    1   0.208  -0.449  -0.292
    1UNL     C2    2   0.176  -0.411  -0.151
    1UNL     C3    3   0.104  -0.504  -0.062
    1UNL     C4    4   0.213  -0.293  -0.096
    1UNL     C5    5   0.272  -0.178  -0.161
    1UNL     C6    6   0.255  -0.041  -0.089
    1UNL     O1    7   0.331  -0.053   0.034
    1UNL     C7    8   0.303   0.084  -0.158
    1UNL     C8    9   0.449   0.101  -0.183
    1UNL     C9   10   0.217   0.169  -0.220
    1UNL    C10   11   0.067   0.171  -0.223
    1UNL     O2   12   0.022   0.311  -0.214
    1UNL    C11   13  -0.011   0.332  -0.078
    1UNL     O3   14   0.093   0.296   0.010
    1UNL    C12   15   0.076   0.326   0.148
    1UNL    C13   16   0.207   0.301   0.220
    1UNL     O4   17   0.249   0.170   0.221
    1UNL    C14   18  -0.048   0.254   0.214
    1UNL     O5   19  -0.003   0.148   0.300
    1UNL    C15   20  -0.129   0.182   0.095
    1UNL     O6   21  -0.061   0.060   0.058
    1UNL    C16   22  -0.155  -0.038   0.030
    1UNL     O7   23  -0.286   0.007  -0.020
    1UNL    C17   24  -0.359  -0.093  -0.093
    1UNL    C18   25  -0.508  -0.077  -0.081
    1UNL     O8   26  -0.544  -0.040   0.050
    1UNL    C19   27  -0.308  -0.234  -0.047
    1UNL     O9   28  -0.194  -0.273  -0.122
    1UNL    C20   29  -0.281  -0.238   0.108
    1UNL    O10   30  -0.401  -0.241   0.183
    1UNL    C21   31  -0.190  -0.129   0.154
    1UNL    O11   32  -0.253  -0.043   0.254
    1UNL    C22   33  -0.150   0.260  -0.032
    1UNL    O12   34  -0.246   0.364  -0.007
    1UNL     H1   35   0.136  -0.523  -0.315
    1UNL     H2   36   0.311  -0.493  -0.305
    1UNL     H3   37   0.183  -0.377  -0.366
    1UNL     H4   38  -0.000  -0.472  -0.067
    1UNL     H5   39   0.129  -0.495   0.044
    1UNL     H6   40   0.103  -0.608  -0.094
    1UNL     H7   41   0.183  -0.272   0.010
    1UNL     H8   42   0.382  -0.203  -0.172
    1UNL     H9   43   0.240  -0.164  -0.260
    1UNL    H10   44   0.149  -0.027  -0.062
    1UNL    H11   45   0.312   0.024   0.090
    1UNL    H12   46   0.482   0.058  -0.281
    1UNL    H13   47   0.485   0.202  -0.158
    1UNL    H14   48   0.494   0.051  -0.097
    1UNL    H15   49   0.273   0.252  -0.276
    1UNL    H16   50   0.022   0.126  -0.309
    1UNL    H17   51   0.022   0.112  -0.145
    1UNL    H18   52  -0.018   0.438  -0.079
    1UNL    H19   53   0.047   0.437   0.154
    1UNL    H20   54   0.286   0.357   0.172
    1UNL    H21   55   0.218   0.333   0.326
    1UNL    H22   56   0.171   0.112   0.234
    1UNL    H23   57  -0.107   0.324   0.268
    1UNL    H24   58  -0.063   0.069   0.275
    1UNL    H25   59  -0.237   0.149   0.129
    1UNL    H26   60  -0.114  -0.100  -0.054
    1UNL    H27   61  -0.332  -0.077  -0.200
    1UNL    H28   62  -0.543   0.011  -0.142
    1UNL    H29   63  -0.548  -0.177  -0.111
    1UNL    H30   64  -0.460   0.006   0.081
    1UNL    H31   65  -0.380  -0.311  -0.081
    1UNL    H32   66  -0.220  -0.295  -0.211
    1UNL    H33   67  -0.234  -0.337   0.128
    1UNL    H34   68  -0.457  -0.164   0.155
    1UNL    H35   69  -0.104  -0.167   0.211
    1UNL    H36   70  -0.306  -0.100   0.318
    1UNL    H37   71  -0.174   0.195  -0.124
    1UNL    H38   72  -0.328   0.326   0.037
   0.00000   0.00000   0.00000   0.00000   0.00000   0.00000   0.00000   0.00000   0.00000
Generated with MDTraj, t= 91.0
 72
    1UNL     C1    1   0.165  -0.443  -0.290
    1UNL     C2    2   0.172  -0.417  -0.147
    1UNL     C3    3   0.138  -0.531  -0.057
    1UNL     C4    4   0.207  -0.294  -0.096
    1UNL     C5    5   0.255  -0.174  -0.172
    1UNL     C6    6   0.231  -0.048  -0.089
    1UNL     O1    7   0.283  -0.059   0.047
    1UNL     C7    8   0.297   0.068  -0.157
    1UNL     C8    9   0.438   0.082  -0.161
    1UNL     C9   10   0.230   0.170  -0.215
    1UNL    C10   11   0.079   0.169  -0.209
    1UNL     O2   12   0.028   0.297  -0.212
    1UNL    C11   13  -0.006   0.334  -0.084
    1UNL     O3   14   0.095   0.318   0.016
    1UNL    C12   15   0.064   0.351   0.149
    1UNL    C13   16   0.185   0.299   0.232
    1UNL     O4   17   0.211   0.168   0.205
    1UNL    C14   18  -0.064   0.275   0.203
    1UNL     O5   19  -0.029   0.185   0.313
    1UNL    C15   20  -0.133   0.190   0.092
    1UNL     O6   21  -0.058   0.064   0.083
    1UNL    C16   22  -0.143  -0.033   0.027
    1UNL     O7   23  -0.270   0.007  -0.019
    1UNL    C17   24  -0.356  -0.087  -0.086
    1UNL    C18   25  -0.502  -0.060  -0.064
    1UNL     O8   26  -0.523  -0.015   0.071
    1UNL    C19   27  -0.308  -0.227  -0.055
    1UNL     O9   28  -0.202  -0.266  -0.138
    1UNL    C20   29  -0.268  -0.254   0.090
    1UNL    O10   30  -0.383  -0.238   0.172
    1UNL    C21   31  -0.161  -0.155   0.128
    1UNL    O11   32  -0.169  -0.104   0.262
    1UNL    C22   33  -0.143   0.264  -0.041
    1UNL    O12   34  -0.248   0.361  -0.047
    1UNL     H1   35   0.189  -0.542  -0.315
    1UNL     H2   36   0.231  -0.368  -0.336
    1UNL     H3   37   0.060  -0.428  -0.316
    1UNL     H4   38   0.100  -0.498   0.039
    1UNL     H5   39   0.218  -0.604  -0.037
    1UNL     H6   40   0.051  -0.584  -0.095
    1UNL     H7   41   0.213  -0.289   0.008
    1UNL     H8   42   0.364  -0.179  -0.198
    1UNL     H9   43   0.200  -0.172  -0.262
    1UNL    H10   44   0.123  -0.034  -0.082
    1UNL    H11   45   0.273   0.032   0.088
    1UNL    H12   46   0.481   0.107  -0.260
    1UNL    H13   47   0.458   0.158  -0.082
    1UNL    H14   48   0.496   0.000  -0.116
    1UNL    H15   49   0.290   0.253  -0.255
    1UNL    H16   50   0.033   0.109  -0.283
    1UNL    H17   51   0.049   0.125  -0.115
    1UNL    H18   52  -0.037   0.437  -0.088
    1UNL    H19   53   0.044   0.462   0.153
    1UNL    H20   54   0.275   0.356   0.215
    1UNL    H21   55   0.169   0.310   0.340
    1UNL    H22   56   0.125   0.111   0.199
    1UNL    H23   57  -0.131   0.349   0.244
    1UNL    H24   58  -0.058   0.087   0.291
    1UNL    H25   59  -0.239   0.153   0.127
    1UNL    H26   60  -0.088  -0.079  -0.060
    1UNL    H27   61  -0.331  -0.071  -0.196
    1UNL    H28   62  -0.518   0.031  -0.131
    1UNL    H29   63  -0.561  -0.149  -0.081
    1UNL    H30   64  -0.454   0.054   0.075
    1UNL    H31   65  -0.389  -0.294  -0.080
    1UNL    H32   66  -0.242  -0.264  -0.225
    1UNL    H33   67  -0.242  -0.360   0.098
    1UNL    H34   68  -0.435  -0.162   0.141
    1UNL    H35   69  -0.057  -0.200   0.132
    1UNL    H36   70  -0.228  -0.158   0.315
    1UNL    H37   71  -0.173   0.186  -0.120
    1UNL    H38   72  -0.326   0.319  -0.005
   0.00000   0.00000   0.00000   0.00000   0.00000   0.00000   0.00000   0.00000   0.00000
Generated with MDTraj, t= 92.0
 72
    1UNL     C1    1   0.131  -0.439  -0.291
    1UNL     C2    2   0.164  -0.421  -0.144
    1UNL     C3    3   0.147  -0.541  -0.061
    1UNL     C4    4   0.202  -0.304  -0.085
    1UNL     C5    5   0.217  -0.177  -0.163
    1UNL     C6    6   0.226  -0.057  -0.072
    1UNL     O1    7   0.309  -0.095   0.043
    1UNL     C7    8   0.298   0.066  -0.131
    1UNL     C8    9   0.444   0.066  -0.128
    1UNL     C9   10   0.226   0.172  -0.185
    1UNL    C10   11   0.075   0.172  -0.217
    1UNL     O2   12   0.021   0.305  -0.220
    1UNL    C11   13  -0.022   0.349  -0.089
    1UNL     O3   14   0.088   0.323   0.012
    1UNL    C12   15   0.058   0.343   0.150
    1UNL    C13   16   0.162   0.271   0.238
    1UNL     O4   17   0.186   0.133   0.204
    1UNL    C14   18  -0.078   0.279   0.190
    1UNL     O5   19  -0.092   0.216   0.315
    1UNL    C15   20  -0.137   0.194   0.080
    1UNL     O6   21  -0.051   0.082   0.049
    1UNL    C16   22  -0.124  -0.026   0.005
    1UNL     O7   23  -0.257   0.009  -0.022
    1UNL    C17   24  -0.340  -0.087  -0.084
    1UNL    C18   25  -0.488  -0.046  -0.058
    1UNL     O8   26  -0.513  -0.005   0.081
    1UNL    C19   27  -0.300  -0.235  -0.050
    1UNL     O9   28  -0.222  -0.284  -0.156
    1UNL    C20   29  -0.231  -0.247   0.092
    1UNL    O10   30  -0.335  -0.242   0.185
    1UNL    C21   31  -0.121  -0.142   0.111
    1UNL    O11   32  -0.114  -0.089   0.242
    1UNL    C22   33  -0.159   0.275  -0.050
    1UNL    O12   34  -0.254   0.379  -0.028
    1UNL     H1   35   0.173  -0.522  -0.342
    1UNL     H2   36   0.160  -0.351  -0.344
    1UNL     H3   37   0.021  -0.447  -0.304
    1UNL     H4   38   0.213  -0.532   0.027
    1UNL     H5   39   0.173  -0.632  -0.118
    1UNL     H6   40   0.046  -0.543  -0.022
    1UNL     H7   41   0.237  -0.307   0.021
    1UNL     H8   42   0.313  -0.190  -0.219
    1UNL     H9   43   0.133  -0.159  -0.228
    1UNL    H10   44   0.121  -0.037  -0.046
    1UNL    H11   45   0.301  -0.015   0.099
    1UNL    H12   46   0.490   0.092  -0.223
    1UNL    H13   47   0.466   0.139  -0.047
    1UNL    H14   48   0.488  -0.027  -0.087
    1UNL    H15   49   0.279   0.251  -0.216
    1UNL    H16   50   0.060   0.126  -0.313
    1UNL    H17   51   0.017   0.108  -0.150
    1UNL    H18   52  -0.036   0.458  -0.098
    1UNL    H19   53   0.048   0.452   0.163
    1UNL    H20   54   0.255   0.325   0.242
    1UNL    H21   55   0.132   0.280   0.343
    1UNL    H22   56   0.101   0.105   0.160
    1UNL    H23   57  -0.146   0.367   0.200
    1UNL    H24   58  -0.096   0.117   0.313
    1UNL    H25   59  -0.240   0.151   0.112
    1UNL    H26   60  -0.079  -0.067  -0.092
    1UNL    H27   61  -0.321  -0.080  -0.198
    1UNL    H28   62  -0.524   0.042  -0.118
    1UNL    H29   63  -0.552  -0.129  -0.066
    1UNL    H30   64  -0.459   0.075   0.105
    1UNL    H31   65  -0.389  -0.294  -0.036
    1UNL    H32   66  -0.282  -0.297  -0.237
    1UNL    H33   67  -0.196  -0.348   0.103
    1UNL    H34   68  -0.386  -0.156   0.177
    1UNL    H35   69  -0.022  -0.197   0.088
    1UNL    H36   70  -0.199  -0.125   0.282
    1UNL    H37   71  -0.191   0.214  -0.141
    1UNL    H38   72  -0.340   0.335  -0.017
   0.00000   0.00000   0.00000   0.00000   0.00000   0.00000   0.00000   0.00000   0.00000
Generated with MDTraj, t= 93.0
 72
    1UNL     C1    1   0.108  -0.416  -0.288
    1UNL     C2    2   0.134  -0.412  -0.144
    1UNL     C3    3   0.130  -0.539  -0.063
    1UNL     C4    4   0.175  -0.295  -0.089
    1UNL     C5    5   0.221  -0.172  -0.161
    1UNL     C6    6   0.230  -0.055  -0.065
    1UNL     O1    7   0.290  -0.093   0.064
    1UNL     C7    8   0.288   0.068  -0.125
    1UNL     C8    9   0.433   0.090  -0.092
    1UNL     C9   10   0.229   0.162  -0.207
    1UNL    C10   11   0.074   0.178  -0.219
    1UNL     O2   12   0.031   0.315  -0.217
    1UNL    C11   13   0.002   0.357  -0.083
    1UNL     O3   14   0.099   0.306   0.017
    1UNL    C12   15   0.065   0.331   0.154
    1UNL    C13   16   0.167   0.253   0.235
    1UNL     O4   17   0.185   0.119   0.206
    1UNL    C14   18  -0.078   0.271   0.186
    1UNL     O5   19  -0.079   0.191   0.303
    1UNL    C15   20  -0.145   0.212   0.065
    1UNL     O6   21  -0.062   0.096   0.026
    1UNL    C16   22  -0.136  -0.019  -0.012
    1UNL     O7   23  -0.276   0.004  -0.039
    1UNL    C17   24  -0.348  -0.112  -0.089
    1UNL    C18   25  -0.499  -0.092  -0.047
    1UNL     O8   26  -0.522  -0.062   0.088
    1UNL    C19   27  -0.293  -0.256  -0.048
    1UNL     O9   28  -0.193  -0.312  -0.143
    1UNL    C20   29  -0.231  -0.240   0.104
    1UNL    O10   30  -0.322  -0.218   0.205
    1UNL    C21   31  -0.111  -0.129   0.097
    1UNL    O11   32  -0.097  -0.071   0.226
    1UNL    C22   33  -0.141   0.315  -0.048
    1UNL    O12   34  -0.234   0.426  -0.037
    1UNL     H1   35   0.099  -0.515  -0.330
    1UNL     H2   36   0.183  -0.370  -0.344
    1UNL     H3   37   0.015  -0.362  -0.312
    1UNL     H4   38   0.231  -0.585  -0.071
    1UNL     H5   39   0.060  -0.616  -0.096
    1UNL     H6   40   0.123  -0.516   0.044
    1UNL     H7   41   0.203  -0.304   0.012
    1UNL     H8   42   0.328  -0.188  -0.188
    1UNL     H9   43   0.154  -0.151  -0.245
    1UNL    H10   44   0.122  -0.037  -0.050
    1UNL    H11   45   0.271  -0.012   0.119
    1UNL    H12   46   0.502   0.096  -0.177
    1UNL    H13   47   0.434   0.182  -0.029
    1UNL    H14   48   0.467   0.015  -0.017
    1UNL    H15   49   0.306   0.241  -0.245
    1UNL    H16   50   0.033   0.134  -0.308
    1UNL    H17   51   0.023   0.120  -0.139
    1UNL    H18   52   0.011   0.469  -0.074
    1UNL    H19   53   0.070   0.438   0.168
    1UNL    H20   54   0.261   0.306   0.233
    1UNL    H21   55   0.140   0.264   0.341
    1UNL    H22   56   0.112   0.096   0.147
    1UNL    H23   57  -0.136   0.361   0.226
    1UNL    H24   58  -0.092   0.097   0.274
    1UNL    H25   59  -0.257   0.181   0.079
    1UNL    H26   60  -0.091  -0.039  -0.116
    1UNL    H27   61  -0.349  -0.112  -0.205
    1UNL    H28   62  -0.551  -0.005  -0.090
    1UNL    H29   63  -0.549  -0.180  -0.063
    1UNL    H30   64  -0.465   0.017   0.118
    1UNL    H31   65  -0.373  -0.327  -0.037
    1UNL    H32   66  -0.234  -0.346  -0.230
    1UNL    H33   67  -0.181  -0.330   0.133
    1UNL    H34   68  -0.387  -0.153   0.175
    1UNL    H35   69  -0.008  -0.174   0.068
    1UNL    H36   70  -0.159  -0.123   0.278
    1UNL    H37   71  -0.173   0.261  -0.143
    1UNL    H38   72  -0.322   0.387  -0.053
   0.00000   0.00000   0.00000   0.00000   0.00000   0.00000   0.00000   0.00000   0.00000
Generated with MDTraj, t= 94.0
 72
    1UNL     C1    1   0.087  -0.397  -0.302
    1UNL     C2    2   0.122  -0.386  -0.161
    1UNL     C3    3   0.068  -0.489  -0.069
    1UNL     C4    4   0.183  -0.283  -0.101
    1UNL     C5    5   0.229  -0.157  -0.162
    1UNL     C6    6   0.215  -0.038  -0.065
    1UNL     O1    7   0.255  -0.085   0.064
    1UNL     C7    8   0.310   0.081  -0.114
    1UNL     C8    9   0.452   0.075  -0.094
    1UNL     C9   10   0.256   0.175  -0.198
    1UNL    C10   11   0.109   0.193  -0.242
    1UNL     O2   12   0.057   0.324  -0.234
    1UNL    C11   13   0.021   0.359  -0.100
    1UNL     O3   14   0.109   0.302   0.001
    1UNL    C12   15   0.069   0.342   0.136
    1UNL    C13   16   0.162   0.269   0.230
    1UNL     O4   17   0.162   0.135   0.216
    1UNL    C14   18  -0.076   0.275   0.166
    1UNL     O5   19  -0.094   0.208   0.291
    1UNL    C15   20  -0.138   0.204   0.047
    1UNL     O6   21  -0.064   0.082   0.030
    1UNL    C16   22  -0.150  -0.033   0.018
    1UNL     O7   23  -0.295  -0.025   0.012
    1UNL    C17   24  -0.348  -0.130  -0.065
    1UNL    C18   25  -0.508  -0.129  -0.057
    1UNL     O8   26  -0.550  -0.093   0.071
    1UNL    C19   27  -0.283  -0.265  -0.038
    1UNL     O9   28  -0.186  -0.305  -0.139
    1UNL    C20   29  -0.219  -0.268   0.109
    1UNL    O10   30  -0.315  -0.252   0.206
    1UNL    C21   31  -0.102  -0.148   0.121
    1UNL    O11   32  -0.107  -0.085   0.254
    1UNL    C22   33  -0.126   0.315  -0.066
    1UNL    O12   34  -0.191   0.436  -0.016
    1UNL     H1   35   0.012  -0.476  -0.313
    1UNL     H2   36   0.173  -0.426  -0.355
    1UNL     H3   37   0.048  -0.304  -0.344
    1UNL     H4   38   0.068  -0.593  -0.108
    1UNL     H5   39  -0.034  -0.477  -0.033
    1UNL     H6   40   0.139  -0.497   0.015
    1UNL     H7   41   0.203  -0.303   0.004
    1UNL     H8   42   0.334  -0.171  -0.189
    1UNL     H9   43   0.165  -0.132  -0.249
    1UNL    H10   44   0.107  -0.015  -0.064
    1UNL    H11   45   0.239  -0.012   0.123
    1UNL    H12   46   0.511   0.081  -0.186
    1UNL    H13   47   0.473   0.161  -0.025
    1UNL    H14   48   0.482  -0.013  -0.033
    1UNL    H15   49   0.326   0.250  -0.228
    1UNL    H16   50   0.093   0.147  -0.341
    1UNL    H17   51   0.036   0.134  -0.178
    1UNL    H18   52   0.024   0.472  -0.086
    1UNL    H19   53   0.070   0.447   0.142
    1UNL    H20   54   0.264   0.310   0.224
    1UNL    H21   55   0.137   0.301   0.334
    1UNL    H22   56   0.081   0.112   0.168
    1UNL    H23   57  -0.146   0.364   0.192
    1UNL    H24   58  -0.092   0.112   0.279
    1UNL    H25   59  -0.249   0.178   0.070
    1UNL    H26   60  -0.109  -0.075  -0.084
    1UNL    H27   61  -0.330  -0.095  -0.172
    1UNL    H28   62  -0.530  -0.050  -0.124
    1UNL    H29   63  -0.554  -0.218  -0.073
    1UNL    H30   64  -0.508  -0.011   0.091
    1UNL    H31   65  -0.361  -0.340  -0.031
    1UNL    H32   66  -0.234  -0.317  -0.223
    1UNL    H33   67  -0.176  -0.365   0.129
    1UNL    H34   68  -0.372  -0.173   0.187
    1UNL    H35   69   0.005  -0.185   0.096
    1UNL    H36   70  -0.119  -0.159   0.321
    1UNL    H37   71  -0.172   0.285  -0.162
    1UNL    H38   72  -0.291   0.435  -0.025
   0.00000   0.00000   0.00000   0.00000   0.00000   0.00000   0.00000   0.00000   0.00000
Generated with MDTraj, t= 95.0
 72
    1UNL     C1    1   0.074  -0.359  -0.322
    1UNL     C2    2   0.091  -0.380  -0.174
    1UNL     C3    3   0.009  -0.486  -0.111
    1UNL     C4    4   0.154  -0.282  -0.106
    1UNL     C5    5   0.235  -0.171  -0.168
    1UNL     C6    6   0.244  -0.045  -0.070
    1UNL     O1    7   0.299  -0.089   0.060
    1UNL     C7    8   0.322   0.074  -0.123
    1UNL     C8    9   0.465   0.096  -0.097
    1UNL     C9   10   0.269   0.176  -0.195
    1UNL    C10   11   0.123   0.189  -0.230
    1UNL     O2   12   0.077   0.321  -0.217
    1UNL    C11   13   0.018   0.344  -0.088
    1UNL     O3   14   0.105   0.299   0.021
    1UNL    C12   15   0.061   0.338   0.149
    1UNL    C13   16   0.152   0.268   0.251
    1UNL     O4   17   0.168   0.134   0.222
    1UNL    C14   18  -0.085   0.285   0.175
    1UNL     O5   19  -0.102   0.213   0.292
    1UNL    C15   20  -0.144   0.206   0.058
    1UNL     O6   21  -0.068   0.085   0.052
    1UNL    C16   22  -0.145  -0.029   0.016
    1UNL     O7   23  -0.282  -0.011  -0.011
    1UNL    C17   24  -0.342  -0.123  -0.075
    1UNL    C18   25  -0.501  -0.117  -0.039
    1UNL     O8   26  -0.501  -0.142   0.103
    1UNL    C19   27  -0.281  -0.253  -0.025
    1UNL     O9   28  -0.187  -0.291  -0.120
    1UNL    C20   29  -0.215  -0.244   0.118
    1UNL    O10   30  -0.303  -0.255   0.218
    1UNL    C21   31  -0.117  -0.125   0.126
    1UNL    O11   32  -0.142  -0.062   0.247
    1UNL    C22   33  -0.124   0.279  -0.079
    1UNL    O12   34  -0.217   0.378  -0.109
    1UNL     H1   35   0.028  -0.449  -0.361
    1UNL     H2   36   0.172  -0.357  -0.370
    1UNL     H3   37   0.018  -0.277  -0.359
    1UNL     H4   38  -0.058  -0.541  -0.180
    1UNL     H5   39  -0.055  -0.452  -0.029
    1UNL     H6   40   0.086  -0.554  -0.071
    1UNL     H7   41   0.148  -0.284   0.003
    1UNL     H8   42   0.335  -0.203  -0.191
    1UNL     H9   43   0.185  -0.135  -0.262
    1UNL    H10   44   0.143  -0.009  -0.047
    1UNL    H11   45   0.276  -0.022   0.133
    1UNL    H12   46   0.535   0.102  -0.183
    1UNL    H13   47   0.481   0.184  -0.031
    1UNL    H14   48   0.498   0.013  -0.031
    1UNL    H15   49   0.341   0.250  -0.203
    1UNL    H16   50   0.086   0.146  -0.327
    1UNL    H17   51   0.067   0.125  -0.156
    1UNL    H18   52   0.005   0.456  -0.069
    1UNL    H19   53   0.058   0.443   0.153
    1UNL    H20   54   0.243   0.325   0.275
    1UNL    H21   55   0.100   0.279   0.349
    1UNL    H22   56   0.090   0.113   0.163
    1UNL    H23   57  -0.160   0.371   0.183
    1UNL    H24   58  -0.119   0.113   0.276
    1UNL    H25   59  -0.255   0.179   0.078
    1UNL    H26   60  -0.083  -0.074  -0.073
    1UNL    H27   61  -0.332  -0.114  -0.184
    1UNL    H28   62  -0.548  -0.023  -0.047
    1UNL    H29   63  -0.540  -0.194  -0.092
    1UNL    H30   64  -0.455  -0.058   0.137
    1UNL    H31   65  -0.354  -0.337  -0.021
    1UNL    H32   66  -0.235  -0.302  -0.201
    1UNL    H33   67  -0.151  -0.333   0.127
    1UNL    H34   68  -0.387  -0.223   0.182
    1UNL    H35   69  -0.010  -0.166   0.125
    1UNL    H36   70  -0.237  -0.070   0.267
    1UNL    H37   71  -0.119   0.200  -0.153
    1UNL    H38   72  -0.301   0.335  -0.144
   0.00000   0.00000   0.00000   0.00000   0.00000   0.00000   0.00000   0.00000   0.00000
Generated with MDTraj, t= 96.0
 72
    1UNL     C1    1   0.094  -0.316  -0.349
    1UNL     C2    2   0.108  -0.352  -0.206
    1UNL     C3    3   0.043  -0.480  -0.153
    1UNL     C4    4   0.162  -0.268  -0.117
    1UNL     C5    5   0.245  -0.152  -0.167
    1UNL     C6    6   0.244  -0.042  -0.059
    1UNL     O1    7   0.290  -0.093   0.063
    1UNL     C7    8   0.336   0.075  -0.107
    1UNL     C8    9   0.484   0.054  -0.099
    1UNL     C9   10   0.276   0.172  -0.180
    1UNL    C10   11   0.131   0.179  -0.218
    1UNL     O2   12   0.079   0.304  -0.226
    1UNL    C11   13   0.016   0.339  -0.104
    1UNL     O3   14   0.109   0.319   0.008
    1UNL    C12   15   0.055   0.343   0.138
    1UNL    C13   16   0.147   0.263   0.240
    1UNL     O4   17   0.156   0.126   0.223
    1UNL    C14   18  -0.093   0.300   0.152
    1UNL     O5   19  -0.126   0.257   0.280
    1UNL    C15   20  -0.138   0.195   0.047
    1UNL     O6   21  -0.056   0.078   0.055
    1UNL    C16   22  -0.146  -0.039   0.042
    1UNL     O7   23  -0.286  -0.009   0.015
    1UNL    C17   24  -0.350  -0.119  -0.047
    1UNL    C18   25  -0.500  -0.113  -0.011
    1UNL     O8   26  -0.513  -0.074   0.123
    1UNL    C19   27  -0.284  -0.259  -0.025
    1UNL     O9   28  -0.190  -0.290  -0.125
    1UNL    C20   29  -0.218  -0.268   0.119
    1UNL    O10   30  -0.311  -0.290   0.220
    1UNL    C21   31  -0.130  -0.135   0.151
    1UNL    O11   32  -0.175  -0.075   0.270
    1UNL    C22   33  -0.119   0.257  -0.091
    1UNL    O12   34  -0.227   0.339  -0.112
    1UNL     H1   35   0.093  -0.406  -0.409
    1UNL     H2   36   0.192  -0.269  -0.375
    1UNL     H3   37   0.019  -0.251  -0.382
    1UNL     H4   38  -0.049  -0.507  -0.206
    1UNL     H5   39   0.023  -0.478  -0.044
    1UNL     H6   40   0.122  -0.554  -0.172
    1UNL     H7   41   0.151  -0.292  -0.015
    1UNL     H8   42   0.347  -0.171  -0.194
    1UNL     H9   43   0.203  -0.103  -0.260
    1UNL    H10   44   0.141  -0.008  -0.039
    1UNL    H11   45   0.268  -0.032   0.133
    1UNL    H12   46   0.538   0.055  -0.196
    1UNL    H13   47   0.530   0.119  -0.024
    1UNL    H14   48   0.487  -0.051  -0.063
    1UNL    H15   49   0.346   0.264  -0.196
    1UNL    H16   50   0.119   0.120  -0.313
    1UNL    H17   51   0.067   0.121  -0.146
    1UNL    H18   52  -0.019   0.448  -0.110
    1UNL    H19   53   0.064   0.448   0.156
    1UNL    H20   54   0.247   0.311   0.232
    1UNL    H21   55   0.129   0.293   0.345
    1UNL    H22   56   0.087   0.101   0.159
    1UNL    H23   57  -0.156   0.392   0.133
    1UNL    H24   58  -0.132   0.160   0.281
    1UNL    H25   59  -0.248   0.160   0.064
    1UNL    H26   60  -0.098  -0.077  -0.057
    1UNL    H27   61  -0.342  -0.094  -0.151
    1UNL    H28   62  -0.534  -0.028  -0.070
    1UNL    H29   63  -0.552  -0.201  -0.012
    1UNL    H30   64  -0.426  -0.024   0.145
    1UNL    H31   65  -0.356  -0.346  -0.028
    1UNL    H32   66  -0.243  -0.299  -0.209
    1UNL    H33   67  -0.147  -0.353   0.132
    1UNL    H34   68  -0.371  -0.214   0.228
    1UNL    H35   69  -0.024  -0.159   0.176
    1UNL    H36   70  -0.181  -0.145   0.341
    1UNL    H37   71  -0.122   0.181  -0.167
    1UNL    H38   72  -0.307   0.283  -0.123
   0.00000   0.00000   0.00000   0.00000   0.00000   0.00000   0.00000   0.00000   0.00000
Generated with MDTraj, t= 97.0
 72
    1UNL     C1    1   0.120  -0.321  -0.379
    1UNL     C2    2   0.122  -0.353  -0.231
    1UNL     C3    3   0.057  -0.475  -0.194
    1UNL     C4    4   0.187  -0.279  -0.141
    1UNL     C5    5   0.273  -0.156  -0.166
    1UNL     C6    6   0.248  -0.046  -0.071
    1UNL     O1    7   0.286  -0.079   0.061
    1UNL     C7    8   0.325   0.080  -0.101
    1UNL     C8    9   0.449   0.102  -0.033
    1UNL     C9   10   0.284   0.173  -0.188
    1UNL    C10   11   0.151   0.178  -0.254
    1UNL     O2   12   0.079   0.297  -0.234
    1UNL    C11   13   0.019   0.316  -0.105
    1UNL     O3   14   0.104   0.278   0.010
    1UNL    C12   15   0.053   0.331   0.133
    1UNL    C13   16   0.159   0.288   0.241
    1UNL     O4   17   0.170   0.153   0.231
    1UNL    C14   18  -0.096   0.283   0.154
    1UNL     O5   19  -0.101   0.222   0.283
    1UNL    C15   20  -0.143   0.190   0.039
    1UNL     O6   21  -0.073   0.070   0.061
    1UNL    C16   22  -0.158  -0.044   0.029
    1UNL     O7   23  -0.284  -0.012  -0.033
    1UNL    C17   24  -0.368  -0.128  -0.037
    1UNL    C18   25  -0.498  -0.101   0.043
    1UNL     O8   26  -0.480  -0.051   0.177
    1UNL    C19   27  -0.298  -0.264  -0.017
    1UNL     O9   28  -0.191  -0.298  -0.106
    1UNL    C20   29  -0.247  -0.270   0.131
    1UNL    O10   30  -0.351  -0.293   0.227
    1UNL    C21   31  -0.153  -0.141   0.158
    1UNL    O11   32  -0.191  -0.065   0.277
    1UNL    C22   33  -0.122   0.253  -0.099
    1UNL    O12   34  -0.211   0.363  -0.128
    1UNL     H1   35   0.047  -0.385  -0.424
    1UNL     H2   36   0.217  -0.363  -0.413
    1UNL     H3   37   0.115  -0.221  -0.417
    1UNL     H4   38  -0.047  -0.487  -0.225
    1UNL     H5   39   0.056  -0.494  -0.085
    1UNL     H6   40   0.121  -0.553  -0.238
    1UNL     H7   41   0.172  -0.302  -0.032
    1UNL     H8   42   0.374  -0.189  -0.155
    1UNL     H9   43   0.278  -0.112  -0.271
    1UNL    H10   44   0.138  -0.028  -0.060
    1UNL    H11   45   0.259  -0.003   0.124
    1UNL    H12   46   0.534   0.057  -0.091
    1UNL    H13   47   0.464   0.207  -0.003
    1UNL    H14   48   0.449   0.037   0.055
    1UNL    H15   49   0.348   0.254  -0.189
    1UNL    H16   50   0.149   0.162  -0.363
    1UNL    H17   51   0.089   0.095  -0.212
    1UNL    H18   52   0.002   0.429  -0.100
    1UNL    H19   53   0.054   0.439   0.121
    1UNL    H20   54   0.254   0.345   0.236
    1UNL    H21   55   0.127   0.316   0.341
    1UNL    H22   56   0.086   0.122   0.190
    1UNL    H23   57  -0.159   0.373   0.163
    1UNL    H24   58  -0.123   0.129   0.271
    1UNL    H25   59  -0.255   0.163   0.049
    1UNL    H26   60  -0.100  -0.098  -0.057
    1UNL    H27   61  -0.400  -0.138  -0.136
    1UNL    H28   62  -0.549  -0.009   0.006
    1UNL    H29   63  -0.560  -0.182   0.046
    1UNL    H30   64  -0.428   0.027   0.168
    1UNL    H31   65  -0.366  -0.352  -0.035
    1UNL    H32   66  -0.213  -0.253  -0.196
    1UNL    H33   67  -0.189  -0.367   0.139
    1UNL    H34   68  -0.413  -0.214   0.230
    1UNL    H35   69  -0.059  -0.189   0.182
    1UNL    H36   70  -0.290  -0.060   0.287
    1UNL    H37   71  -0.124   0.187  -0.182
    1UNL    H38   72  -0.303   0.332  -0.134
   0.00000   0.00000   0.00000   0.00000   0.00000   0.00000   0.00000   0.00000   0.00000
Generated with MDTraj, t= 98.0
 72
    1UNL     C1    1   0.170  -0.305  -0.389
    1UNL     C2    2   0.152  -0.338  -0.244
    1UNL     C3    3   0.049  -0.442  -0.204
    1UNL     C4    4   0.216  -0.272  -0.142
    1UNL     C5    5   0.292  -0.140  -0.157
    1UNL     C6    6   0.236  -0.040  -0.059
    1UNL     O1    7   0.258  -0.084   0.075
    1UNL     C7    8   0.302   0.094  -0.081
    1UNL     C8    9   0.422   0.116   0.002
    1UNL     C9   10   0.266   0.183  -0.175
    1UNL    C10   11   0.140   0.170  -0.259
    1UNL     O2   12   0.074   0.291  -0.245
    1UNL    C11   13   0.018   0.315  -0.117
    1UNL     O3   14   0.120   0.299  -0.014
    1UNL    C12   15   0.077   0.323   0.125
    1UNL    C13   16   0.171   0.256   0.225
    1UNL     O4   17   0.163   0.120   0.219
    1UNL    C14   18  -0.070   0.269   0.155
    1UNL     O5   19  -0.075   0.197   0.276
    1UNL    C15   20  -0.118   0.170   0.046
    1UNL     O6   21  -0.052   0.043   0.027
    1UNL    C16   22  -0.151  -0.058   0.024
    1UNL     O7   23  -0.274  -0.014  -0.016
    1UNL    C17   24  -0.381  -0.121  -0.016
    1UNL    C18   25  -0.513  -0.103   0.062
    1UNL     O8   26  -0.527   0.003   0.161
    1UNL    C19   27  -0.321  -0.264   0.005
    1UNL     O9   28  -0.238  -0.310  -0.107
    1UNL    C20   29  -0.231  -0.258   0.137
    1UNL    O10   30  -0.309  -0.289   0.247
    1UNL    C21   31  -0.158  -0.124   0.157
    1UNL    O11   32  -0.225  -0.042   0.245
    1UNL    C22   33  -0.117   0.233  -0.092
    1UNL    O12   34  -0.225   0.331  -0.117
    1UNL     H1   35   0.145  -0.391  -0.448
    1UNL     H2   36   0.278  -0.291  -0.400
    1UNL     H3   37   0.120  -0.217  -0.428
    1UNL     H4   38  -0.057  -0.416  -0.215
    1UNL     H5   39   0.056  -0.479  -0.100
    1UNL     H6   40   0.073  -0.530  -0.266
    1UNL     H7   41   0.208  -0.311  -0.046
    1UNL     H8   42   0.398  -0.144  -0.146
    1UNL     H9   43   0.283  -0.105  -0.264
    1UNL    H10   44   0.124  -0.039  -0.065
    1UNL    H11   45   0.226  -0.015   0.132
    1UNL    H12   46   0.520   0.091  -0.049
    1UNL    H13   47   0.437   0.215   0.046
    1UNL    H14   48   0.432   0.037   0.078
    1UNL    H15   49   0.321   0.275  -0.179
    1UNL    H16   50   0.167   0.163  -0.364
    1UNL    H17   51   0.063   0.091  -0.238
    1UNL    H18   52  -0.007   0.425  -0.115
    1UNL    H19   53   0.080   0.435   0.130
    1UNL    H20   54   0.272   0.287   0.195
    1UNL    H21   55   0.168   0.298   0.324
    1UNL    H22   56   0.076   0.096   0.179
    1UNL    H23   57  -0.141   0.348   0.162
    1UNL    H24   58  -0.126   0.109   0.265
    1UNL    H25   59  -0.230   0.145   0.070
    1UNL    H26   60  -0.114  -0.131  -0.060
    1UNL    H27   61  -0.409  -0.118  -0.115
    1UNL    H28   62  -0.602  -0.074  -0.004
    1UNL    H29   63  -0.537  -0.187   0.122
    1UNL    H30   64  -0.484   0.086   0.131
    1UNL    H31   65  -0.397  -0.343   0.023
    1UNL    H32   66  -0.294  -0.285  -0.185
    1UNL    H33   67  -0.148  -0.336   0.123
    1UNL    H34   68  -0.341  -0.206   0.285
    1UNL    H35   69  -0.057  -0.134   0.186
    1UNL    H36   70  -0.308  -0.029   0.192
    1UNL    H37   71  -0.126   0.153  -0.162
    1UNL    H38   72  -0.305   0.291  -0.080
   0.00000   0.00000   0.00000   0.00000   0.00000   0.00000   0.00000   0.00000   0.00000
Generated with MDTraj, t= 99.0
 72
    1UNL     C1    1   0.191  -0.306  -0.405
    1UNL     C2    2   0.146  -0.341  -0.266
    1UNL     C3    3   0.057  -0.456  -0.244
    1UNL     C4    4   0.184  -0.264  -0.161
    1UNL     C5    5   0.275  -0.146  -0.170
    1UNL     C6    6   0.258  -0.038  -0.053
    1UNL     O1    7   0.295  -0.089   0.076
    1UNL     C7    8   0.336   0.088  -0.074
    1UNL     C8    9   0.461   0.112  -0.005
    1UNL     C9   10   0.284   0.182  -0.154
    1UNL    C10   11   0.148   0.169  -0.227
    1UNL     O2   12   0.072   0.288  -0.236
    1UNL    C11   13   0.016   0.324  -0.113
    1UNL     O3   14   0.105   0.296  -0.006
    1UNL    C12   15   0.062   0.327   0.124
    1UNL    C13   16   0.164   0.268   0.214
    1UNL     O4   17   0.174   0.133   0.191
    1UNL    C14   18  -0.087   0.276   0.157
    1UNL     O5   19  -0.078   0.200   0.275
    1UNL    C15   20  -0.135   0.189   0.038
    1UNL     O6   21  -0.073   0.057   0.052
    1UNL    C16   22  -0.160  -0.057   0.038
    1UNL     O7   23  -0.287  -0.036  -0.026
    1UNL    C17   24  -0.388  -0.139  -0.014
    1UNL    C18   25  -0.502  -0.087   0.070
    1UNL     O8   26  -0.488   0.050   0.104
    1UNL    C19   27  -0.329  -0.277   0.027
    1UNL     O9   28  -0.254  -0.347  -0.084
    1UNL    C20   29  -0.238  -0.262   0.151
    1UNL    O10   30  -0.308  -0.311   0.263
    1UNL    C21   31  -0.169  -0.127   0.175
    1UNL    O11   32  -0.256  -0.058   0.266
    1UNL    C22   33  -0.118   0.251  -0.102
    1UNL    O12   34  -0.229   0.349  -0.125
    1UNL     H1   35   0.171  -0.389  -0.471
    1UNL     H2   36   0.294  -0.283  -0.406
    1UNL     H3   37   0.142  -0.218  -0.452
    1UNL     H4   38  -0.026  -0.443  -0.172
    1UNL     H5   39   0.121  -0.536  -0.203
    1UNL     H6   40   0.026  -0.483  -0.346
    1UNL     H7   41   0.164  -0.299  -0.056
    1UNL     H8   42   0.375  -0.185  -0.185
    1UNL     H9   43   0.254  -0.093  -0.265
    1UNL    H10   44   0.147  -0.019  -0.045
    1UNL    H11   45   0.282  -0.020   0.148
    1UNL    H12   46   0.543   0.122  -0.079
    1UNL    H13   47   0.460   0.208   0.049
    1UNL    H14   48   0.501   0.023   0.048
    1UNL    H15   49   0.348   0.270  -0.190
    1UNL    H16   50   0.160   0.150  -0.333
    1UNL    H17   51   0.074   0.096  -0.185
    1UNL    H18   52  -0.005   0.433  -0.109
    1UNL    H19   53   0.065   0.441   0.131
    1UNL    H20   54   0.264   0.316   0.208
    1UNL    H21   55   0.135   0.295   0.315
    1UNL    H22   56   0.087   0.102   0.148
    1UNL    H23   57  -0.155   0.353   0.181
    1UNL    H24   58  -0.122   0.112   0.269
    1UNL    H25   59  -0.253   0.177   0.046
    1UNL    H26   60  -0.114  -0.130  -0.040
    1UNL    H27   61  -0.429  -0.153  -0.108
    1UNL    H28   62  -0.605  -0.113   0.018
    1UNL    H29   63  -0.508  -0.128   0.170
    1UNL    H30   64  -0.426   0.087   0.031
    1UNL    H31   65  -0.399  -0.351   0.070
    1UNL    H32   66  -0.301  -0.331  -0.164
    1UNL    H33   67  -0.160  -0.344   0.139
    1UNL    H34   68  -0.306  -0.238   0.333
    1UNL    H35   69  -0.078  -0.138   0.231
    1UNL    H36   70  -0.330  -0.039   0.208
    1UNL    H37   71  -0.124   0.179  -0.181
    1UNL    H38   72  -0.313   0.309  -0.090
   0.00000   0.00000   0.00000   0.00000   0.00000   0.00000   0.00000   0.00000   0.00000
