[ moleculetype ]
; name        nrexcl
res           1

[ atoms ]
;    nr  type resnr resid  atom  cgnr     charge       mass
      1 SN3r      1 res   C1        1      0.000     54.000
      2 TN2a      1 res   C2        2      0.000     36.000
      3 TC5       1 res   C3        3      0.000     36.000
      4 TC3       1 res   C4        4      0.000     36.000
      5 SC4       1 res   C5        5      0.000     54.000
      6 SC4       1 res   C6        6      0.000     54.000
      7 TC3       1 res   C7        7      0.000     36.000
      8 SC4       1 res   C8        8      0.000     54.000
      9 SC4       1 res   C9        9      0.000     54.000
     10 TC3       1 res   C10      10      0.000     36.000
     11 TN6       1 res   C11      11      0.000     36.000
     12 SN4a      1 res   C12      12      0.000     54.000
     13 TN6       1 res   C13      13      0.000     36.000
     14 SN4a      1 res   C14      14      0.000     54.000
     15 TP1       1 res   C15      15      0.000     36.000
     16 TN6       1 res   C16      16      0.000     36.000
     17 TN6       1 res   C17      17      0.000     36.000
     18 TN6       1 res   C18      18      0.000     36.000
     19 SN4a      1 res   C19      19      0.000     54.000
     20 TN6       1 res   C20      20      0.000     36.000
     21 TN6       1 res   C21      21      0.000     36.000
     22 TN6       1 res   C22      22      0.000     36.000
     23 TN6       1 res   C23      23      0.000     36.000
     24 TN6       1 res   C24      24      0.000     36.000
     25 SN4a      1 res   C25      25      0.000     54.000
     26 TP1       1 res   C26      26      0.000     36.000
     27 TN6       1 res   C27      27      0.000     36.000
     28 TN6       1 res   C28      28      0.000     36.000
     29 TN6       1 res   C29      29      0.000     36.000
     30 SC4       1 res   C30      30      0.000     54.000
     31 TC3       1 res   C31      31      0.000     36.000
     32 SN6       1 res   C32      32      0.000     54.000

[ bonds ]
;  ai    aj   funct      b0(nm)        k
    1     2     1      0.33238    20000
    1     5     1      0.36027    20000
    2     3     1      0.28035    20000
    3     4     1      0.24430    20000
    3     5     1      0.31366    20000
    3     6     1      0.32454    20000
    3    32     1      0.29213    20000
    4     5     1      0.31547    20000
    6     7     1      0.39002    20000
    6     8     1      0.29332    20000
    6    32     1      0.31989    20000
    7     8     1      0.29254    20000
    8     9     1      0.39942    20000
    8    31     1      0.28073    20000
    9    10     1      0.28921    20000
    9    30     1      0.34913    20000
    9    31     1      0.35910    20000
   10    11     1      0.24571    20000
   11    12     1      0.31397    20000
   11    30     1      0.24798    20000
   12    13     1      0.24779    20000
   12    24     1      0.27978    20000
   13    14     1      0.23962    20000
   13    23     1      0.23907    20000
   14    15     1      0.29242    20000
   14    16     1      0.31078    20000
   14    18     1      0.25585    20000
   16    17     1      0.23331    20000
   17    18     1      0.24335    20000
   18    19     1      0.26106    20000
   19    20     1      0.28611    20000
   19    22     1      0.28723    20000
   20    21     1      0.22236    20000
   21    22     1      0.23989    20000
   23    24     1      0.22060    20000
   24    25     1      0.31472    20000
   25    26     1      0.25862    20000
   25    27     1      0.25900    20000
   25    29     1      0.27723    20000
   27    28     1      0.24818    20000
   28    29     1      0.23681    20000
