[ moleculetype ]
; name        nrexcl
res           1

[ atoms ]
;    nr  type resnr resid  atom  cgnr     charge       mass
      1 SN4a      1 res   C1        1      0.000     54.000
      2 TC3       1 res   C2        2      0.000     36.000
      3 SC3       1 res   C3        3      0.000     54.000
      4 SP1       1 res   C4        4      0.000     54.000
      5 TC3       1 res   C5        5      0.000     36.000
      6 TN6       1 res   C6        6      0.000     36.000
      7 SC4       1 res   C7        7      0.000     54.000
      8 TN6       1 res   C8        8      0.000     36.000
      9 SP1       1 res   C9        9      0.000     54.000
     10 TC3       1 res   C10      10      0.000     36.000
     11 SN6       1 res   C11      11      0.000     54.000

[ bonds ]
;  ai    aj   funct      b0(nm)        k
    1     2     1      0.36116    20000
    2     3     1      0.24091    20000
    2    10     1      0.28272    20000
    2    11     1      0.31015    20000
    3     4     1      0.32922    20000
    3    10     1      0.33832    20000
    4     5     1      0.26550    20000
    5     6     1      0.24652    20000
    5     8     1      0.28858    20000
    6     7     1      0.27258    20000
    7     8     1      0.28514    20000
    8     9     1      0.27873    20000
    9    10     1      0.28888    20000
   10    11     1      0.26939    20000
