[ moleculetype ]
; name        nrexcl
res           1

[ atoms ]
;    nr  type resnr resid  atom  cgnr     charge       mass
      1 TC4       1 res   C1        1      0.000     36.000
      2 TN4a      1 res   C2        2      0.000     36.000
      3 TN6       1 res   C3        3      0.000     36.000
      4 TC3       1 res   C4        4      0.000     36.000
      5 SC4       1 res   C5        5      0.000     54.000
      6 SC4       1 res   C6        6      0.000     54.000
      7 TC5       1 res   C7        7      0.000     36.000
      8 SC4       1 res   C8        8      0.000     54.000
      9 SC5       1 res   C9        9      0.000     54.000
     10 SC4       1 res   C10      10      0.000     54.000
     11 TC3       1 res   C11      11      0.000     36.000
     12 TP1       1 res   C12      12      0.000     36.000
     13 SN6       1 res   C13      13      0.000     54.000
     14 TC3       1 res   C14      14      0.000     36.000
     15 TC4       1 res   C15      15      0.000     36.000
     16 TP1       1 res   C16      16      0.000     36.000
     17 TC3       1 res   C17      17      0.000     36.000
     18 TN6       1 res   C18      18      0.000     36.000
     19 TN4a      1 res   C19      19      0.000     36.000
     20 TP1       1 res   C20      20      0.000     36.000
     21 TN6       1 res   C21      21      0.000     36.000
     22 TN6       1 res   C22      22      0.000     36.000
     23 TN6       1 res   C23      23      0.000     36.000
     24 TN6       1 res   C24      24      0.000     36.000
     25 TN4a      1 res   C25      25      0.000     36.000
     26 TP1       1 res   C26      26      0.000     36.000
     27 TN6       1 res   C27      27      0.000     36.000
     28 TN6       1 res   C28      28      0.000     36.000
     29 TN6       1 res   C29      29      0.000     36.000
     30 TN6       1 res   C30      30      0.000     36.000

[ bonds ]
;  ai    aj   funct      b0(nm)        k
    1     2     1      0.32335    20000
    1    30     1      0.24763    20000
    2     3     1      0.22179    20000
    2    17     1      0.25886    20000
    3     4     1      0.26290    20000
    3    15     1      0.26399    20000
    4     5     1      0.27334    20000
    5     6     1      0.36641    20000
    5    14     1      0.32005    20000
    5    15     1      0.29277    20000
    6     7     1      0.39374    20000
    6     8     1      0.27599    20000
    6    14     1      0.30555    20000
    7     8     1      0.30763    20000
    8     9     1      0.37047    20000
    8    13     1      0.29208    20000
    9    10     1      0.28241    20000
    9    11     1      0.27252    20000
    9    12     1      0.37177    20000
    9    13     1      0.34418    20000
   10    11     1      0.29521    20000
   15    16     1      0.28760    20000
   17    18     1      0.24875    20000
   17    24     1      0.22076    20000
   17    30     1      0.29478    20000
   18    19     1      0.23114    20000
   18    23     1      0.20878    20000
   19    20     1      0.24206    20000
   19    21     1      0.25780    20000
   21    22     1      0.24305    20000
   22    23     1      0.24142    20000
   24    25     1      0.27082    20000
   24    29     1      0.21483    20000
   25    26     1      0.24344    20000
   25    27     1      0.24364    20000
   27    28     1      0.25688    20000
   28    29     1      0.21695    20000
