1TPCN05518
38
    1res  C1    1    0.614  -0.107  -0.354
    1res  C2    2    0.591  -0.324  -0.135
    1res  C3    3    0.375  -0.202  -0.088
    1res  C4    4    0.584  -0.126   0.104
    1res  C5    5    0.871  -0.064   0.118
    1res  C6    6    0.993   0.107  -0.087
    1res  C7    7    1.189   0.299   0.039
    1res  C8    8    1.325   0.564  -0.061
    1res  C9    9    1.389   0.393   0.195
    1res  C10   10    1.485   0.198   0.103
    1res  C11   11    1.366   0.048  -0.006
    1res  C12   12    1.078  -0.162  -0.090
    1res  C13   13    1.017  -0.341   0.056
    1res  C14   14    0.921  -0.258   0.259
    1res  C15   15    0.319  -0.268   0.171
    1res  C16   16    0.217   0.022   0.120
    1res  C17   17    0.035  -0.036  -0.157
    1res  C18   18   -0.017  -0.075   0.217
    1res  C19   19   -0.270  -0.052  -0.056
    1res  C20   20   -0.377  -0.029   0.204
    1res  C21   21   -0.542  -0.156   0.040
    1res  C22   22   -0.734  -0.155  -0.238
    1res  C23   23   -0.869   0.049  -0.326
    1res  C24   24   -0.747   0.144  -0.168
    1res  C25   25   -0.837   0.373  -0.079
    1res  C26   26   -0.980   0.606   0.051
    1res  C27   27   -1.124   0.423  -0.132
    1res  C28   28   -1.018   0.515  -0.329
    1res  C29   29   -0.805   0.411  -0.372
    1res  C30   30   -0.785  -0.007  -0.029
    1res  C31   31   -0.919  -0.052   0.124
    1res  C32   32   -0.944  -0.240   0.351
    1res  C33   33   -1.197  -0.157   0.297
    1res  C34   34   -1.166   0.094   0.231
    1res  C35   35   -1.119  -0.028   0.020
    1res  C36   36   -0.429  -0.374   0.045
    1res  C37   37   -0.061  -0.329   0.091
    1res  C38   38    0.402   0.028  -0.254
  10.00000  10.00000  10.00000
