1TPCN05239
28
    1res  C1    1   -0.626  -0.046   0.382
    1res  C2    2   -0.587  -0.226   0.009
    1res  C3    3   -0.281   0.044   0.039
    1res  C4    4   -0.170  -0.264   0.187
    1res  C5    5   -0.158  -0.219  -0.077
    1res  C6    6    0.123  -0.199  -0.060
    1res  C7    7    0.254  -0.131   0.169
    1res  C8    8    0.424  -0.103  -0.018
    1res  C9    9    0.711  -0.153  -0.048
    1res  C10   10    0.859  -0.392   0.093
    1res  C11   11    0.821  -0.275  -0.242
    1res  C12   12    0.810  -0.026  -0.305
    1res  C13   13    0.698   0.050  -0.150
    1res  C14   14    0.751   0.220   0.036
    1res  C15   15    0.709   0.221   0.377
    1res  C16   16    0.958   0.377   0.201
    1res  C17   17    0.956   0.450  -0.006
    1res  C18   18    0.937   0.256  -0.101
    1res  C19   19    0.316   0.128  -0.128
    1res  C20   20    0.333  -0.096  -0.311
    1res  C21   21   -0.038   0.010  -0.210
    1res  C22   22   -0.480  -0.011  -0.135
    1res  C23   23   -0.765  -0.028   0.060
    1res  C24   24   -0.790   0.222  -0.148
    1res  C25   25   -0.897   0.441  -0.117
    1res  C26   26   -1.059   0.262  -0.101
    1res  C27   27   -0.979   0.166   0.079
    1res  C28   28   -0.840  -0.146   0.225
  10.00000  10.00000  10.00000
