[ moleculetype ]
; name        nrexcl
res           1

[ atoms ]
;    nr  type  resnr resid  atom  cgnr     charge       mass
      1 SX4e      1 res   C1        1      0.000     54.000
      2 TC5       1 res   C2        2      0.000     36.000
      3 SP2       1 res   C3        3      0.000     54.000
      4 TC5       1 res   C4        4      0.000     36.000

[ bonds ]
;  ai    aj   funct      b0(nm)          k(kJ/mol/nm^2)
    1     2     1      0.25757         204549.9
    1     4     1      0.29522         190265.6
    2     3     1      0.26094          31208.3
    2     4     1      0.29771         123781.6

[ angles ]
;  ai    aj    ak  funct     th0(deg)        k(kJ/mol/rad^2)
    1     2     3     1    156.29956           708.73
    1     2     4     1     63.75547          5318.24
    1     4     2     1     51.48218         12630.45
    2     1     4     1     64.76234          3742.37
    3     2     4     1     93.25769           850.84

[ dihedrals ]
;  ai    aj    ak    al  funct   phi0(deg)        k(kJ/mol)   mult
    1     4     2     3     1     -0.00741       10.808      1
    1     4     2     3     1    179.98527       10.494      2
    1     4     2     3     1     -0.02184        9.985      3
    3     2     1     4     1    178.86275       22.220      1
    3     2     1     4     1    177.75865       18.753      2
    3     2     1     4     1    176.76485       13.730      3
