1TPCN06129
13
    1res  C1    1    0.525   0.234  -0.031
    1res  C2    2    0.418  -0.138  -0.151
    1res  C3    3    0.165  -0.284  -0.009
    1res  C4    4    0.161   0.044   0.158
    1res  C5    5    0.139   0.068  -0.120
    1res  C6    6   -0.079  -0.109  -0.234
    1res  C7    7   -0.087   0.210  -0.179
    1res  C8    8   -0.377   0.035  -0.072
    1res  C9    9   -0.657  -0.018  -0.047
    1res  C10   10   -0.516   0.179   0.127
    1res  C11   11   -0.304  -0.122   0.223
    1res  C12   12   -0.138   0.218   0.122
    1res  C13   13    0.457  -0.216   0.172
  10.00000  10.00000  10.00000
