[ moleculetype ]
; name        nrexcl
res           1

[ atoms ]
;    nr  type resnr resid  atom  cgnr     charge       mass
      1 SN4a      1 res   C1        1      0.000     54.000
      2 SC3       1 res   C2        2      0.000     54.000
      3 SC4       1 res   C3        3      0.000     54.000
      4 TC3       1 res   C4        4      0.000     36.000
      5 SC4       1 res   C5        5      0.000     54.000
      6 TC3       1 res   C6        6      0.000     36.000
      7 SC4       1 res   C7        7      0.000     54.000
      8 SC5       1 res   C8        8      0.000     54.000
      9 SC4       1 res   C9        9      0.000     54.000
     10 TC3       1 res   C10      10      0.000     36.000
     11 SP2       1 res   C11      11      0.000     54.000
     12 TC3       1 res   C12      12      0.000     36.000
     13 SC4       1 res   C13      13      0.000     54.000

[ bonds ]
;  ai    aj   funct      b0(nm)        k
    1     2     1      0.40562    20000
    2     3     1      0.32433    20000
    2    13     1      0.33454    20000
    3     4     1      0.36754    20000
    3     5     1      0.36943    20000
    3    13     1      0.34953    20000
    4     5     1      0.27998    20000
    5     6     1      0.30230    20000
    5     7     1      0.27385    20000
    6     7     1      0.32343    20000
    7     8     1      0.35500    20000
    7    12     1      0.30615    20000
    8     9     1      0.28571    20000
    8    10     1      0.28250    20000
    8    11     1      0.34219    20000
    8    12     1      0.35825    20000
    9    10     1      0.29874    20000
