1TPCN06212
11
    1res  C1    1    0.634   0.153  -0.122
    1res  C2    2    0.448  -0.052  -0.167
    1res  C3    3    0.363  -0.174   0.064
    1res  C4    4    0.266   0.180   0.097
    1res  C5    5    0.122  -0.012   0.180
    1res  C6    6   -0.007  -0.225  -0.013
    1res  C7    7   -0.088   0.145   0.026
    1res  C8    8   -0.302  -0.103  -0.149
    1res  C9    9   -0.422   0.163  -0.151
    1res  C10   10   -0.593  -0.071   0.024
    1res  C11   11   -0.246   0.002   0.204
  10.00000  10.00000  10.00000
