1TDMBI
11
    1res  C1    1    0.966  -0.189   0.052
    1res  C2    2    0.571   0.055   0.096
    1res  C3    3    0.164   0.138   0.113
    1res  C4    4   -0.112   0.117  -0.064
    1res  C5    5   -0.308   0.099  -0.168
    1res  C6    6   -0.326   0.012   0.120
    1res  C7    7   -0.507  -0.129  -0.209
    1res  C8    8   -0.705  -0.022  -0.067
    1res  C9    9   -0.849  -0.222  -0.022
    1res  C10   10   -0.913   0.055   0.049
    1res  C11   11   -0.616   0.268  -0.086
  10.00000  10.00000  10.00000
