[ moleculetype ]
; name        nrexcl
res           1

[ atoms ]
;    nr  type  resnr resid  atom  cgnr     charge       mass
      1 TC3       1 res   C1        1      0.000     36.000
      2 TC3       1 res   C2        2      0.000     36.000
      3 TN6d      1 res   C3        3      0.000     36.000
      4 TC3       1 res   C4        4      0.000     36.000
      5 TC5       1 res   C5        5      0.000     36.000
      6 TC5       1 res   C6        6      0.000     36.000
      7 TC5       1 res   C7        7      0.000     36.000
      8 TC5       1 res   C8        8      0.000     36.000
      9 TN6d      1 res   C9        9      0.000     36.000
     10 TN2a      1 res   C10      10      0.000     36.000
     11 SC3       1 res   C11      11      0.000     54.000
     12 TN4a      1 res   C12      12      0.000     36.000
     13 N4a       1 res   C13      13      0.000     72.000

[ bonds ]
;  ai    aj   funct      b0(nm)          k(kJ/mol/nm^2)
    1     2     1      0.26199          47785.7
    2     3     1      0.26714          69078.0
    2    11     1      0.29665          95464.0
    3     4     1      0.29950          92850.2
    3     5     1      0.22820         113214.9
    3    11     1      0.25269         215933.1
    4     5     1      0.22117         179793.6
    4    10     1      0.21382          91159.1
    5     6     1      0.19094         269773.8
    5     9     1      0.22374          96599.3
    5    10     1      0.18196         160171.0
    5    11     1      0.26972         155478.5
    6     7     1      0.24844         274097.9
    6     8     1      0.24918         303453.1
    6     9     1      0.21834         127560.4
    7     8     1      0.29000         336948.4
   11    12     1      0.35211          69722.0
   11    13     1      0.39510          31897.7

[ angles ]
;  ai    aj    ak  funct     th0(deg)        k(kJ/mol/rad^2)
    1     2     3     1    149.68280           873.67
    1     2    11     1     98.91815          1388.69
    2     3     4     1     63.70346          1633.75
    2     3     5     1     94.84056          1583.05
    2     3    11     1     69.52278          4660.24
    2    11     3     1     57.52850          3760.98
    2    11     5     1     80.25615          3711.92
    2    11    12     1     82.67640           682.83
    2    11    13     1    141.00181           584.41
    3     2    11     1     52.94866          4891.29
    3     4     5     1     49.21529          4922.47
    3     4    10     1     48.91708          4216.08
    3     5     4     1     83.57717          3659.37
    3     5     6     1    150.96435          1150.38
    3     5     9     1     88.22720          1106.61
    3     5    10     1     65.89433          2430.05
    3     5    11     1     60.30563          5751.24
    3    11     5     1     51.67040          5508.43
    3    11    12     1    110.62603          1930.10
    3    11    13     1    120.87208           464.33
    4     3     5     1     47.20749          7205.90
    4     3    11     1     90.24217          2934.50
    4     5     6     1    117.44551          1556.34
    4     5     9     1    137.05673           367.56
    4     5    10     1     63.17965          2905.59
    4     5    11     1    105.83491          1909.74
    4    10     5     1     67.40306          2836.45
    5     3    11     1     68.02400          3396.48
    5     4    10     1     49.41731          4243.57
    5     6     7     1    126.87737          2035.37
    5     6     8     1    160.38379          1137.38
    5     6     9     1     65.88223          2983.57
    5     9     6     1     51.16001          5132.89
    5    11    12     1     68.98057          2974.95
    5    11    13     1     74.64984           798.81
    6     5     9     1     62.95768          3437.13
    6     5    10     1    104.40513           998.59
    6     5    11     1    124.44465          1258.80
    6     7     8     1     54.47313         12126.03
    6     8     7     1     54.23366         12216.47
    7     6     8     1     71.29324          9846.49
    7     6     9     1    163.94045           858.72
    8     6     9     1     95.15389          1392.40
    9     5    10     1     75.08683           471.48
    9     5    11     1    106.11424           384.97
   10     5    11     1    125.98605          1933.86
   12    11    13     1     61.03700          1313.21
