1TPCN01343
9
    1res  C1    1    0.835   0.146   0.033
    1res  C2    2    0.548   0.069  -0.113
    1res  C3    3    0.339   0.019  -0.058
    1res  C4    4    0.072  -0.028   0.083
    1res  C5    5   -0.197  -0.289   0.101
    1res  C6    6   -0.339   0.002  -0.150
    1res  C7    7   -0.397   0.252   0.052
    1res  C8    8   -0.091   0.007  -0.182
    1res  C9    9    0.508   0.075   0.186
  10.00000  10.00000  10.00000
