Generated with MDTraj, t= 0.0
 51
    1UNL     C1    1  -0.561  -0.012  -0.121
    1UNL     C2    2  -0.492   0.037   0.006
    1UNL     C3    3  -0.531   0.182   0.035
    1UNL     C4    4  -0.337   0.018  -0.004
    1UNL     O1    5  -0.288   0.091  -0.117
    1UNL     C5    6  -0.303  -0.133  -0.026
    1UNL     C6    7  -0.161  -0.168   0.002
    1UNL     C7    8  -0.076  -0.090   0.068
    1UNL     C8    9   0.066  -0.136   0.084
    1UNL     O2   10   0.135  -0.141  -0.039
    1UNL     C9   11   0.273  -0.160  -0.018
    1UNL     O3   12   0.326  -0.070   0.080
    1UNL    C10   13   0.335   0.064   0.030
    1UNL    C11   14   0.367   0.160   0.144
    1UNL     O4   15   0.493   0.132   0.198
    1UNL    C12   16   0.443   0.074  -0.084
    1UNL     O5   17   0.395   0.154  -0.191
    1UNL    C13   18   0.482  -0.068  -0.134
    1UNL     O6   19   0.568  -0.132  -0.042
    1UNL    C14   20   0.350  -0.149  -0.155
    1UNL     O7   21   0.268  -0.087  -0.253
    1UNL    C15   22  -0.114   0.046   0.116
    1UNL    C16   23  -0.266   0.067   0.125
    1UNL     H1   24  -0.522   0.041  -0.208
    1UNL     H2   25  -0.668   0.006  -0.117
    1UNL     H3   26  -0.545  -0.118  -0.137
    1UNL     H4   27  -0.526  -0.025   0.091
    1UNL     H5   28  -0.490   0.219   0.129
    1UNL     H6   29  -0.639   0.193   0.040
    1UNL     H7   30  -0.496   0.248  -0.044
    1UNL     H8   31  -0.293   0.188  -0.099
    1UNL     H9   32  -0.369  -0.194   0.037
    1UNL    H10   33  -0.327  -0.158  -0.129
    1UNL    H11   34  -0.124  -0.262  -0.036
    1UNL    H12   35   0.069  -0.235   0.130
    1UNL    H13   36   0.120  -0.067   0.151
    1UNL    H14   37   0.285  -0.261   0.023
    1UNL    H15   38   0.237   0.086  -0.014
    1UNL    H16   39   0.291   0.150   0.223
    1UNL    H17   40   0.365   0.264   0.108
    1UNL    H18   41   0.513   0.191   0.275
    1UNL    H19   42   0.532   0.124  -0.043
    1UNL    H20   43   0.332   0.098  -0.241
    1UNL    H21   44   0.536  -0.060  -0.229
    1UNL    H22   45   0.530  -0.121   0.048
    1UNL    H23   46   0.375  -0.249  -0.192
    1UNL    H24   47   0.175  -0.112  -0.235
    1UNL    H25   48  -0.071   0.120   0.048
    1UNL    H26   49  -0.067   0.064   0.214
    1UNL    H27   50  -0.306   0.013   0.211
    1UNL    H28   51  -0.288   0.173   0.142
   0.00000   0.00000   0.00000   0.00000   0.00000   0.00000   0.00000   0.00000   0.00000
Generated with MDTraj, t= 1.0
 51
    1UNL     C1    1  -0.576  -0.009  -0.090
    1UNL     C2    2  -0.480   0.059   0.014
    1UNL     C3    3  -0.502   0.202   0.004
    1UNL     C4    4  -0.330   0.015   0.004
    1UNL     O1    5  -0.286   0.063  -0.125
    1UNL     C5    6  -0.325  -0.143  -0.002
    1UNL     C6    7  -0.181  -0.188   0.011
    1UNL     C7    8  -0.082  -0.117   0.066
    1UNL     C8    9   0.059  -0.168   0.072
    1UNL     O2   10   0.128  -0.140  -0.052
    1UNL     C9   11   0.266  -0.149  -0.025
    1UNL     O3   12   0.317  -0.053   0.074
    1UNL    C10   13   0.326   0.081   0.020
    1UNL    C11   14   0.369   0.165   0.142
    1UNL     O4   15   0.486   0.115   0.206
    1UNL    C12   16   0.441   0.079  -0.082
    1UNL     O5   17   0.400   0.160  -0.193
    1UNL    C13   18   0.486  -0.065  -0.123
    1UNL     O6   19   0.554  -0.123  -0.017
    1UNL    C14   20   0.353  -0.136  -0.156
    1UNL     O7   21   0.286  -0.069  -0.263
    1UNL    C15   22  -0.098   0.035   0.102
    1UNL    C16   23  -0.247   0.069   0.124
    1UNL     H1   24  -0.518   0.016  -0.178
    1UNL     H2   25  -0.677   0.029  -0.082
    1UNL     H3   26  -0.554  -0.118  -0.079
    1UNL     H4   27  -0.504   0.026   0.117
    1UNL     H5   28  -0.441   0.277   0.072
    1UNL     H6   29  -0.597   0.217   0.036
    1UNL     H7   30  -0.500   0.248  -0.102
    1UNL     H8   31  -0.287   0.158  -0.126
    1UNL     H9   32  -0.379  -0.190   0.081
    1UNL    H10   33  -0.358  -0.186  -0.094
    1UNL    H11   34  -0.152  -0.292  -0.029
    1UNL    H12   35   0.066  -0.272   0.098
    1UNL    H13   36   0.119  -0.132   0.153
    1UNL    H14   37   0.292  -0.244   0.015
    1UNL    H15   38   0.226   0.096  -0.031
    1UNL    H16   39   0.292   0.163   0.215
    1UNL    H17   40   0.396   0.261   0.102
    1UNL    H18   41   0.532   0.159   0.274
    1UNL    H19   42   0.535   0.114  -0.030
    1UNL    H20   43   0.330   0.100  -0.232
    1UNL    H21   44   0.550  -0.050  -0.209
    1UNL    H22   45   0.492  -0.119   0.058
    1UNL    H23   46   0.373  -0.235  -0.203
    1UNL    H24   47   0.189  -0.088  -0.263
    1UNL    H25   48  -0.062   0.087   0.018
    1UNL    H26   49  -0.040   0.060   0.192
    1UNL    H27   50  -0.284   0.025   0.218
    1UNL    H28   51  -0.257   0.178   0.133
   0.00000   0.00000   0.00000   0.00000   0.00000   0.00000   0.00000   0.00000   0.00000
Generated with MDTraj, t= 2.0
 51
    1UNL     C1    1  -0.580  -0.006  -0.066
    1UNL     C2    2  -0.484   0.068   0.023
    1UNL     C3    3  -0.483   0.227  -0.012
    1UNL     C4    4  -0.337   0.013   0.004
    1UNL     O1    5  -0.296   0.031  -0.133
    1UNL     C5    6  -0.338  -0.141   0.028
    1UNL     C6    7  -0.196  -0.191   0.021
    1UNL     C7    8  -0.084  -0.126   0.054
    1UNL     C8    9   0.055  -0.187   0.067
    1UNL     O2   10   0.129  -0.151  -0.052
    1UNL     C9   11   0.262  -0.156  -0.034
    1UNL     O3   12   0.307  -0.070   0.070
    1UNL    C10   13   0.327   0.070   0.033
    1UNL    C11   14   0.361   0.158   0.157
    1UNL     O4   15   0.481   0.120   0.208
    1UNL    C12   16   0.445   0.090  -0.076
    1UNL     O5   17   0.402   0.178  -0.191
    1UNL    C13   18   0.494  -0.045  -0.125
    1UNL     O6   19   0.567  -0.115  -0.026
    1UNL    C14   20   0.360  -0.124  -0.158
    1UNL     O7   21   0.290  -0.066  -0.263
    1UNL    C15   22  -0.087   0.024   0.079
    1UNL    C16   23  -0.235   0.082   0.098
    1UNL     H1   24  -0.529   0.012  -0.160
    1UNL     H2   25  -0.668   0.056  -0.045
    1UNL     H3   26  -0.588  -0.118  -0.051
    1UNL     H4   27  -0.500   0.051   0.131
    1UNL     H5   28  -0.425   0.283   0.071
    1UNL     H6   29  -0.577   0.273  -0.020
    1UNL     H7   30  -0.430   0.241  -0.114
    1UNL     H8   31  -0.261   0.117  -0.152
    1UNL     H9   32  -0.368  -0.171   0.128
    1UNL    H10   33  -0.390  -0.195  -0.046
    1UNL    H11   34  -0.179  -0.288   0.003
    1UNL    H12   35   0.055  -0.293   0.088
    1UNL    H13   36   0.106  -0.164   0.157
    1UNL    H14   37   0.285  -0.250   0.006
    1UNL    H15   38   0.234   0.108  -0.021
    1UNL    H16   39   0.285   0.152   0.230
    1UNL    H17   40   0.370   0.260   0.130
    1UNL    H18   41   0.489   0.184   0.288
    1UNL    H19   42   0.519   0.145  -0.010
    1UNL    H20   43   0.357   0.122  -0.254
    1UNL    H21   44   0.545  -0.044  -0.217
    1UNL    H22   45   0.505  -0.123   0.054
    1UNL    H23   46   0.381  -0.229  -0.183
    1UNL    H24   47   0.194  -0.086  -0.252
    1UNL    H25   48  -0.046   0.069  -0.005
    1UNL    H26   49  -0.018   0.035   0.166
    1UNL    H27   50  -0.269   0.063   0.201
    1UNL    H28   51  -0.228   0.190   0.087
   0.00000   0.00000   0.00000   0.00000   0.00000   0.00000   0.00000   0.00000   0.00000
Generated with MDTraj, t= 3.0
 51
    1UNL     C1    1  -0.573  -0.004  -0.054
    1UNL     C2    2  -0.466   0.079   0.023
    1UNL     C3    3  -0.472   0.223  -0.005
    1UNL     C4    4  -0.323   0.018  -0.001
    1UNL     O1    5  -0.300   0.009  -0.144
    1UNL     C5    6  -0.328  -0.133   0.048
    1UNL     C6    7  -0.188  -0.191   0.049
    1UNL     C7    8  -0.076  -0.117   0.056
    1UNL     C8    9   0.061  -0.182   0.052
    1UNL     O2   10   0.131  -0.137  -0.057
    1UNL     C9   11   0.267  -0.163  -0.034
    1UNL     O3   12   0.323  -0.088   0.076
    1UNL    C10   13   0.322   0.050   0.044
    1UNL    C11   14   0.333   0.141   0.177
    1UNL     O4   15   0.467   0.135   0.224
    1UNL    C12   16   0.432   0.086  -0.067
    1UNL     O5   17   0.376   0.178  -0.173
    1UNL    C13   18   0.478  -0.045  -0.131
    1UNL     O6   19   0.562  -0.114  -0.037
    1UNL    C14   20   0.355  -0.128  -0.167
    1UNL     O7   21   0.278  -0.062  -0.261
    1UNL    C15   22  -0.077   0.037   0.030
    1UNL    C16   23  -0.210   0.098   0.068
    1UNL     H1   24  -0.558  -0.010  -0.161
    1UNL     H2   25  -0.672   0.023  -0.018
    1UNL     H3   26  -0.565  -0.113  -0.021
    1UNL     H4   27  -0.471   0.066   0.134
    1UNL     H5   28  -0.405   0.276   0.064
    1UNL     H6   29  -0.586   0.261   0.002
    1UNL     H7   30  -0.439   0.217  -0.113
    1UNL     H8   31  -0.303   0.095  -0.189
    1UNL     H9   32  -0.369  -0.145   0.147
    1UNL    H10   33  -0.380  -0.194  -0.021
    1UNL    H11   34  -0.166  -0.303   0.047
    1UNL    H12   35   0.049  -0.291   0.057
    1UNL    H13   36   0.116  -0.170   0.143
    1UNL    H14   37   0.273  -0.267  -0.018
    1UNL    H15   38   0.226   0.074  -0.016
    1UNL    H16   39   0.264   0.105   0.247
    1UNL    H17   40   0.310   0.244   0.163
    1UNL    H18   41   0.490   0.188   0.312
    1UNL    H19   42   0.516   0.137  -0.009
    1UNL    H20   43   0.366   0.124  -0.258
    1UNL    H21   44   0.537  -0.020  -0.214
    1UNL    H22   45   0.510  -0.139   0.038
    1UNL    H23   46   0.401  -0.217  -0.215
    1UNL    H24   47   0.182  -0.081  -0.271
    1UNL    H25   48  -0.059   0.042  -0.072
    1UNL    H26   49   0.001   0.091   0.086
    1UNL    H27   50  -0.225   0.122   0.176
    1UNL    H28   51  -0.207   0.193   0.015
   0.00000   0.00000   0.00000   0.00000   0.00000   0.00000   0.00000   0.00000   0.00000
Generated with MDTraj, t= 4.0
 51
    1UNL     C1    1  -0.584   0.006  -0.031
    1UNL     C2    2  -0.461   0.084   0.024
    1UNL     C3    3  -0.472   0.232  -0.023
    1UNL     C4    4  -0.329   0.015  -0.008
    1UNL     O1    5  -0.319  -0.009  -0.147
    1UNL     C5    6  -0.314  -0.128   0.067
    1UNL     C6    7  -0.173  -0.168   0.073
    1UNL     C7    8  -0.062  -0.100   0.051
    1UNL     C8    9   0.071  -0.171   0.057
    1UNL     O2   10   0.149  -0.183  -0.058
    1UNL     C9   11   0.289  -0.181  -0.037
    1UNL     O3   12   0.326  -0.098   0.071
    1UNL    C10   13   0.305   0.041   0.046
    1UNL    C11   14   0.330   0.119   0.170
    1UNL     O4   15   0.448   0.114   0.236
    1UNL    C12   16   0.409   0.090  -0.055
    1UNL     O5   17   0.369   0.191  -0.143
    1UNL    C13   18   0.474  -0.033  -0.138
    1UNL     O6   19   0.579  -0.094  -0.055
    1UNL    C14   20   0.366  -0.129  -0.174
    1UNL     O7   21   0.279  -0.059  -0.258
    1UNL    C15   22  -0.075   0.044   0.004
    1UNL    C16   23  -0.210   0.112   0.035
    1UNL     H1   24  -0.583  -0.004  -0.140
    1UNL     H2   25  -0.680   0.053  -0.007
    1UNL     H3   26  -0.605  -0.102  -0.007
    1UNL     H4   27  -0.462   0.074   0.135
    1UNL     H5   28  -0.388   0.289   0.018
    1UNL     H6   29  -0.570   0.287   0.013
    1UNL     H7   30  -0.469   0.229  -0.137
    1UNL     H8   31  -0.339   0.079  -0.190
    1UNL     H9   32  -0.360  -0.125   0.163
    1UNL    H10   33  -0.363  -0.201   0.010
    1UNL    H11   34  -0.149  -0.268   0.102
    1UNL    H12   35   0.056  -0.273   0.098
    1UNL    H13   36   0.120  -0.125   0.142
    1UNL    H14   37   0.308  -0.285  -0.025
    1UNL    H15   38   0.203   0.059  -0.002
    1UNL    H16   39   0.259   0.085   0.244
    1UNL    H17   40   0.305   0.223   0.153
    1UNL    H18   41   0.457   0.171   0.315
    1UNL    H19   42   0.498   0.132  -0.000
    1UNL    H20   43   0.297   0.149  -0.191
    1UNL    H21   44   0.519   0.007  -0.222
    1UNL    H22   45   0.539  -0.115   0.038
    1UNL    H23   46   0.383  -0.222  -0.229
    1UNL    H24   47   0.185  -0.092  -0.260
    1UNL    H25   48  -0.073   0.051  -0.102
    1UNL    H26   49   0.007   0.100   0.039
    1UNL    H27   50  -0.228   0.140   0.140
    1UNL    H28   51  -0.218   0.205  -0.021
   0.00000   0.00000   0.00000   0.00000   0.00000   0.00000   0.00000   0.00000   0.00000
Generated with MDTraj, t= 5.0
 51
    1UNL     C1    1  -0.576   0.008   0.010
    1UNL     C2    2  -0.452   0.094   0.026
    1UNL     C3    3  -0.469   0.222  -0.048
    1UNL     C4    4  -0.328   0.015  -0.014
    1UNL     O1    5  -0.328  -0.020  -0.154
    1UNL     C5    6  -0.306  -0.117   0.066
    1UNL     C6    7  -0.172  -0.167   0.091
    1UNL     C7    8  -0.064  -0.106   0.043
    1UNL     C8    9   0.073  -0.179   0.050
    1UNL     O2   10   0.149  -0.144  -0.061
    1UNL     C9   11   0.281  -0.164  -0.037
    1UNL     O3   12   0.332  -0.098   0.080
    1UNL    C10   13   0.317   0.040   0.057
    1UNL    C11   14   0.326   0.121   0.187
    1UNL     O4   15   0.451   0.090   0.259
    1UNL    C12   16   0.415   0.095  -0.064
    1UNL     O5   17   0.347   0.188  -0.146
    1UNL    C13   18   0.469  -0.032  -0.138
    1UNL     O6   19   0.566  -0.101  -0.057
    1UNL    C14   20   0.359  -0.123  -0.172
    1UNL     O7   21   0.275  -0.053  -0.261
    1UNL    C15   22  -0.065   0.026  -0.022
    1UNL    C16   23  -0.199   0.101   0.013
    1UNL     H1   24  -0.554  -0.033  -0.089
    1UNL     H2   25  -0.677   0.051   0.002
    1UNL     H3   26  -0.598  -0.083   0.072
    1UNL     H4   27  -0.437   0.100   0.136
    1UNL     H5   28  -0.375   0.281  -0.029
    1UNL     H6   29  -0.542   0.285  -0.020
    1UNL     H7   30  -0.474   0.211  -0.162
    1UNL     H8   31  -0.346   0.066  -0.206
    1UNL     H9   32  -0.357  -0.099   0.156
    1UNL    H10   33  -0.357  -0.189   0.009
    1UNL    H11   34  -0.158  -0.258   0.143
    1UNL    H12   35   0.045  -0.289   0.056
    1UNL    H13   36   0.128  -0.168   0.145
    1UNL    H14   37   0.301  -0.269  -0.019
    1UNL    H15   38   0.215   0.053   0.010
    1UNL    H16   39   0.232   0.119   0.248
    1UNL    H17   40   0.322   0.230   0.163
    1UNL    H18   41   0.441   0.129   0.343
    1UNL    H19   42   0.488   0.154  -0.007
    1UNL    H20   43   0.278   0.135  -0.200
    1UNL    H21   44   0.514  -0.009  -0.229
    1UNL    H22   45   0.544  -0.095   0.034
    1UNL    H23   46   0.408  -0.210  -0.220
    1UNL    H24   47   0.179  -0.074  -0.261
    1UNL    H25   48  -0.052   0.015  -0.127
    1UNL    H26   49   0.009   0.091   0.002
    1UNL    H27   50  -0.204   0.143   0.114
    1UNL    H28   51  -0.214   0.191  -0.050
   0.00000   0.00000   0.00000   0.00000   0.00000   0.00000   0.00000   0.00000   0.00000
Generated with MDTraj, t= 6.0
 51
    1UNL     C1    1  -0.594   0.017   0.032
    1UNL     C2    2  -0.460   0.107   0.019
    1UNL     C3    3  -0.476   0.212  -0.076
    1UNL     C4    4  -0.334   0.016  -0.008
    1UNL     O1    5  -0.349  -0.040  -0.131
    1UNL     C5    6  -0.315  -0.104   0.095
    1UNL     C6    7  -0.183  -0.169   0.080
    1UNL     C7    8  -0.076  -0.114   0.025
    1UNL     C8    9   0.061  -0.178   0.037
    1UNL     O2   10   0.141  -0.150  -0.074
    1UNL     C9   11   0.277  -0.165  -0.045
    1UNL     O3   12   0.316  -0.091   0.075
    1UNL    C10   13   0.322   0.053   0.068
    1UNL    C11   14   0.350   0.109   0.200
    1UNL     O4   15   0.479   0.071   0.231
    1UNL    C12   16   0.414   0.103  -0.050
    1UNL     O5   17   0.360   0.194  -0.143
    1UNL    C13   18   0.486  -0.021  -0.123
    1UNL     O6   19   0.572  -0.088  -0.035
    1UNL    C14   20   0.380  -0.118  -0.170
    1UNL     O7   21   0.294  -0.051  -0.267
    1UNL    C15   22  -0.083   0.014  -0.046
    1UNL    C16   23  -0.201   0.100   0.005
    1UNL     H1   24  -0.596  -0.029  -0.069
    1UNL     H2   25  -0.689   0.071   0.043
    1UNL     H3   26  -0.595  -0.058   0.112
    1UNL     H4   27  -0.444   0.146   0.121
    1UNL     H5   28  -0.402   0.298  -0.070
    1UNL     H6   29  -0.572   0.252  -0.063
    1UNL     H7   30  -0.474   0.170  -0.176
    1UNL     H8   31  -0.351   0.024  -0.210
    1UNL     H9   32  -0.328  -0.071   0.193
    1UNL    H10   33  -0.384  -0.179   0.067
    1UNL    H11   34  -0.165  -0.264   0.143
    1UNL    H12   35   0.062  -0.292   0.053
    1UNL    H13   36   0.102  -0.143   0.135
    1UNL    H14   37   0.292  -0.269  -0.009
    1UNL    H15   38   0.219   0.084   0.034
    1UNL    H16   39   0.278   0.059   0.273
    1UNL    H17   40   0.327   0.219   0.210
    1UNL    H18   41   0.508   0.086   0.328
    1UNL    H19   42   0.493   0.161  -0.004
    1UNL    H20   43   0.330   0.149  -0.222
    1UNL    H21   44   0.538   0.011  -0.208
    1UNL    H22   45   0.553  -0.050   0.061
    1UNL    H23   46   0.419  -0.216  -0.197
    1UNL    H24   47   0.224  -0.111  -0.299
    1UNL    H25   48  -0.080   0.014  -0.153
    1UNL    H26   49   0.002   0.067  -0.022
    1UNL    H27   50  -0.202   0.127   0.112
    1UNL    H28   51  -0.217   0.200  -0.041
   0.00000   0.00000   0.00000   0.00000   0.00000   0.00000   0.00000   0.00000   0.00000
Generated with MDTraj, t= 7.0
 51
    1UNL     C1    1  -0.585   0.004   0.052
    1UNL     C2    2  -0.465   0.093   0.021
    1UNL     C3    3  -0.506   0.209  -0.072
    1UNL     C4    4  -0.338   0.015  -0.016
    1UNL     O1    5  -0.375  -0.059  -0.125
    1UNL     C5    6  -0.307  -0.080   0.104
    1UNL     C6    7  -0.176  -0.147   0.099
    1UNL     C7    8  -0.081  -0.106   0.015
    1UNL     C8    9   0.051  -0.176   0.008
    1UNL     O2   10   0.143  -0.118  -0.080
    1UNL     C9   11   0.275  -0.145  -0.045
    1UNL     O3   12   0.312  -0.090   0.079
    1UNL    C10   13   0.324   0.055   0.076
    1UNL    C11   14   0.381   0.097   0.209
    1UNL     O4   15   0.516   0.052   0.245
    1UNL    C12   16   0.418   0.108  -0.041
    1UNL     O5   17   0.337   0.174  -0.139
    1UNL    C13   18   0.488  -0.025  -0.105
    1UNL     O6   19   0.575  -0.093  -0.020
    1UNL    C14   20   0.376  -0.111  -0.160
    1UNL     O7   21   0.314  -0.054  -0.283
    1UNL    C15   22  -0.089   0.015  -0.074
    1UNL    C16   23  -0.211   0.100  -0.044
    1UNL     H1   24  -0.617  -0.023  -0.051
    1UNL     H2   25  -0.662   0.077   0.087
    1UNL     H3   26  -0.575  -0.070   0.131
    1UNL     H4   27  -0.438   0.139   0.118
    1UNL     H5   28  -0.420   0.272  -0.082
    1UNL     H6   29  -0.603   0.264  -0.046
    1UNL     H7   30  -0.515   0.162  -0.161
    1UNL     H8   31  -0.415  -0.011  -0.201
    1UNL     H9   32  -0.306  -0.028   0.194
    1UNL    H10   33  -0.382  -0.155   0.098
    1UNL    H11   34  -0.158  -0.226   0.158
    1UNL    H12   35   0.033  -0.286  -0.017
    1UNL    H13   36   0.103  -0.182   0.107
    1UNL    H14   37   0.288  -0.257  -0.031
    1UNL    H15   38   0.218   0.093   0.067
    1UNL    H16   39   0.307   0.052   0.285
    1UNL    H17   40   0.366   0.210   0.220
    1UNL    H18   41   0.560   0.078   0.336
    1UNL    H19   42   0.500   0.166  -0.005
    1UNL    H20   43   0.328   0.109  -0.216
    1UNL    H21   44   0.546   0.002  -0.189
    1UNL    H22   45   0.566  -0.070   0.071
    1UNL    H23   46   0.426  -0.201  -0.198
    1UNL    H24   47   0.253  -0.105  -0.340
    1UNL    H25   48  -0.088  -0.016  -0.176
    1UNL    H26   49  -0.000   0.074  -0.070
    1UNL    H27   50  -0.206   0.167   0.044
    1UNL    H28   51  -0.238   0.178  -0.121
   0.00000   0.00000   0.00000   0.00000   0.00000   0.00000   0.00000   0.00000   0.00000
Generated with MDTraj, t= 8.0
 51
    1UNL     C1    1  -0.595   0.016   0.069
    1UNL     C2    2  -0.476   0.101   0.026
    1UNL     C3    3  -0.518   0.196  -0.083
    1UNL     C4    4  -0.357   0.015  -0.013
    1UNL     O1    5  -0.402  -0.081  -0.110
    1UNL     C5    6  -0.304  -0.071   0.107
    1UNL     C6    7  -0.162  -0.113   0.088
    1UNL     C7    8  -0.073  -0.080  -0.002
    1UNL     C8    9   0.065  -0.136   0.011
    1UNL     O2   10   0.157  -0.089  -0.076
    1UNL     C9   11   0.284  -0.152  -0.049
    1UNL     O3   12   0.327  -0.106   0.082
    1UNL    C10   13   0.333   0.030   0.092
    1UNL    C11   14   0.393   0.071   0.221
    1UNL     O4   15   0.522   0.015   0.238
    1UNL    C12   16   0.408   0.093  -0.032
    1UNL     O5   17   0.322   0.168  -0.126
    1UNL    C13   18   0.492  -0.006  -0.111
    1UNL     O6   19   0.595  -0.055  -0.028
    1UNL    C14   20   0.395  -0.118  -0.157
    1UNL     O7   21   0.336  -0.078  -0.275
    1UNL    C15   22  -0.118   0.014  -0.112
    1UNL    C16   23  -0.244   0.095  -0.068
    1UNL     H1   24  -0.619  -0.051  -0.018
    1UNL     H2   25  -0.690   0.077   0.079
    1UNL     H3   26  -0.584  -0.026   0.167
    1UNL     H4   27  -0.440   0.163   0.111
    1UNL     H5   28  -0.442   0.257  -0.110
    1UNL     H6   29  -0.616   0.259  -0.067
    1UNL     H7   30  -0.532   0.131  -0.161
    1UNL     H8   31  -0.447  -0.041  -0.183
    1UNL     H9   32  -0.307  -0.013   0.194
    1UNL    H10   33  -0.356  -0.160   0.120
    1UNL    H11   34  -0.115  -0.186   0.162
    1UNL    H12   35   0.059  -0.248   0.000
    1UNL    H13   36   0.110  -0.127   0.112
    1UNL    H14   37   0.281  -0.268  -0.038
    1UNL    H15   38   0.230   0.070   0.090
    1UNL    H16   39   0.323   0.048   0.311
    1UNL    H17   40   0.393   0.186   0.221
    1UNL    H18   41   0.545   0.061   0.316
    1UNL    H19   42   0.470   0.171   0.002
    1UNL    H20   43   0.319   0.125  -0.212
    1UNL    H21   44   0.539   0.044  -0.193
    1UNL    H22   45   0.557  -0.061   0.066
    1UNL    H23   46   0.450  -0.212  -0.173
    1UNL    H24   47   0.245  -0.114  -0.289
    1UNL    H25   48  -0.128  -0.043  -0.200
    1UNL    H26   49  -0.043   0.087  -0.132
    1UNL    H27   50  -0.210   0.174   0.006
    1UNL    H28   51  -0.290   0.159  -0.150
   0.00000   0.00000   0.00000   0.00000   0.00000   0.00000   0.00000   0.00000   0.00000
Generated with MDTraj, t= 9.0
 51
    1UNL     C1    1  -0.588   0.034   0.089
    1UNL     C2    2  -0.476   0.108   0.010
    1UNL     C3    3  -0.530   0.175  -0.110
    1UNL     C4    4  -0.356   0.017  -0.023
    1UNL     O1    5  -0.402  -0.089  -0.104
    1UNL     C5    6  -0.299  -0.052   0.109
    1UNL     C6    7  -0.158  -0.087   0.101
    1UNL     C7    8  -0.074  -0.070   0.002
    1UNL     C8    9   0.059  -0.130   0.011
    1UNL     O2   10   0.157  -0.093  -0.088
    1UNL     C9   11   0.284  -0.147  -0.052
    1UNL     O3   12   0.324  -0.117   0.084
    1UNL    C10   13   0.336   0.026   0.112
    1UNL    C11   14   0.421   0.062   0.239
    1UNL     O4   15   0.551  -0.015   0.238
    1UNL    C12   16   0.392   0.103  -0.019
    1UNL     O5   17   0.293   0.167  -0.096
    1UNL    C13   18   0.475   0.012  -0.111
    1UNL     O6   19   0.596  -0.032  -0.045
    1UNL    C14   20   0.391  -0.116  -0.158
    1UNL     O7   21   0.350  -0.090  -0.289
    1UNL    C15   22  -0.123  -0.010  -0.127
    1UNL    C16   23  -0.244   0.091  -0.089
    1UNL     H1   24  -0.632  -0.049   0.027
    1UNL     H2   25  -0.681   0.089   0.119
    1UNL     H3   26  -0.557  -0.002   0.186
    1UNL     H4   27  -0.430   0.189   0.071
    1UNL     H5   28  -0.463   0.228  -0.171
    1UNL     H6   29  -0.605   0.252  -0.078
    1UNL     H7   30  -0.583   0.110  -0.179
    1UNL     H8   31  -0.443  -0.044  -0.178
    1UNL     H9   32  -0.320   0.001   0.198
    1UNL    H10   33  -0.344  -0.147   0.115
    1UNL    H11   34  -0.107  -0.134   0.184
    1UNL    H12   35   0.065  -0.241   0.007
    1UNL    H13   36   0.096  -0.112   0.111
    1UNL    H14   37   0.272  -0.263  -0.054
    1UNL    H15   38   0.238   0.061   0.137
    1UNL    H16   39   0.368   0.008   0.325
    1UNL    H17   40   0.421   0.172   0.267
    1UNL    H18   41   0.608  -0.004   0.319
    1UNL    H19   42   0.460   0.180   0.012
    1UNL    H20   43   0.214   0.103  -0.102
    1UNL    H21   44   0.515   0.060  -0.200
    1UNL    H22   45   0.571  -0.051   0.047
    1UNL    H23   46   0.444  -0.214  -0.169
    1UNL    H24   47   0.257  -0.053  -0.295
    1UNL    H25   48  -0.170  -0.077  -0.192
    1UNL    H26   49  -0.042   0.040  -0.177
    1UNL    H27   50  -0.223   0.182  -0.023
    1UNL    H28   51  -0.279   0.134  -0.190
   0.00000   0.00000   0.00000   0.00000   0.00000   0.00000   0.00000   0.00000   0.00000
Generated with MDTraj, t= 10.0
 51
    1UNL     C1    1  -0.570   0.063   0.091
    1UNL     C2    2  -0.466   0.116  -0.009
    1UNL     C3    3  -0.539   0.153  -0.143
    1UNL     C4    4  -0.348   0.021  -0.032
    1UNL     O1    5  -0.392  -0.097  -0.086
    1UNL     C5    6  -0.290  -0.013   0.111
    1UNL     C6    7  -0.166  -0.087   0.109
    1UNL     C7    8  -0.085  -0.092   0.006
    1UNL     C8    9   0.047  -0.169   0.005
    1UNL     O2   10   0.150  -0.099  -0.067
    1UNL     C9   11   0.282  -0.158  -0.041
    1UNL     O3   12   0.327  -0.119   0.091
    1UNL    C10   13   0.342   0.016   0.125
    1UNL    C11   14   0.438   0.019   0.244
    1UNL     O4   15   0.570  -0.025   0.214
    1UNL    C12   16   0.386   0.113   0.006
    1UNL     O5   17   0.275   0.174  -0.055
    1UNL    C13   18   0.452   0.036  -0.107
    1UNL     O6   19   0.592   0.010  -0.088
    1UNL    C14   20   0.379  -0.099  -0.151
    1UNL     O7   21   0.326  -0.085  -0.282
    1UNL    C15   22  -0.110  -0.018  -0.122
    1UNL    C16   23  -0.233   0.080  -0.120
    1UNL     H1   24  -0.618  -0.022   0.037
    1UNL     H2   25  -0.655   0.131   0.103
    1UNL     H3   26  -0.530   0.041   0.191
    1UNL     H4   27  -0.419   0.213   0.018
    1UNL     H5   28  -0.460   0.204  -0.209
    1UNL     H6   29  -0.605   0.230  -0.132
    1UNL     H7   30  -0.579   0.074  -0.211
    1UNL     H8   31  -0.421  -0.079  -0.178
    1UNL     H9   32  -0.282   0.081   0.160
    1UNL    H10   33  -0.359  -0.070   0.165
    1UNL    H11   34  -0.123  -0.145   0.187
    1UNL    H12   35   0.048  -0.271  -0.031
    1UNL    H13   36   0.091  -0.181   0.100
    1UNL    H14   37   0.281  -0.273  -0.043
    1UNL    H15   38   0.248   0.046   0.165
    1UNL    H16   39   0.399  -0.032   0.335
    1UNL    H17   40   0.459   0.124   0.264
    1UNL    H18   41   0.631  -0.077   0.282
    1UNL    H19   42   0.446   0.200   0.030
    1UNL    H20   43   0.206   0.107  -0.085
    1UNL    H21   44   0.447   0.107  -0.193
    1UNL    H22   45   0.620  -0.015   0.006
    1UNL    H23   46   0.461  -0.173  -0.171
    1UNL    H24   47   0.232  -0.062  -0.286
    1UNL    H25   48  -0.129  -0.088  -0.196
    1UNL    H26   49  -0.027   0.049  -0.148
    1UNL    H27   50  -0.201   0.187  -0.091
    1UNL    H28   51  -0.271   0.084  -0.230
   0.00000   0.00000   0.00000   0.00000   0.00000   0.00000   0.00000   0.00000   0.00000
Generated with MDTraj, t= 11.0
 51
    1UNL     C1    1  -0.571   0.095   0.069
    1UNL     C2    2  -0.454   0.127  -0.033
    1UNL     C3    3  -0.520   0.126  -0.171
    1UNL     C4    4  -0.343   0.025  -0.026
    1UNL     O1    5  -0.390  -0.106  -0.065
    1UNL     C5    6  -0.279   0.008   0.117
    1UNL     C6    7  -0.152  -0.062   0.114
    1UNL     C7    8  -0.072  -0.079   0.011
    1UNL     C8    9   0.056  -0.151   0.022
    1UNL     O2   10   0.154  -0.090  -0.061
    1UNL     C9   11   0.281  -0.145  -0.046
    1UNL     O3   12   0.344  -0.148   0.080
    1UNL    C10   13   0.343  -0.015   0.136
    1UNL    C11   14   0.469  -0.002   0.237
    1UNL     O4   15   0.590  -0.026   0.174
    1UNL    C12   16   0.349   0.095   0.021
    1UNL     O5   17   0.226   0.151  -0.014
    1UNL    C13   18   0.427   0.049  -0.107
    1UNL     O6   19   0.565   0.034  -0.080
    1UNL    C14   20   0.375  -0.085  -0.152
    1UNL     O7   21   0.319  -0.077  -0.280
    1UNL    C15   22  -0.116  -0.037  -0.130
    1UNL    C16   23  -0.228   0.064  -0.122
    1UNL     H1   24  -0.606  -0.009   0.047
    1UNL     H2   25  -0.657   0.158   0.054
    1UNL     H3   26  -0.523   0.112   0.169
    1UNL     H4   27  -0.410   0.230  -0.032
    1UNL     H5   28  -0.443   0.169  -0.246
    1UNL     H6   29  -0.604   0.185  -0.177
    1UNL     H7   30  -0.531   0.020  -0.205
    1UNL     H8   31  -0.402  -0.117  -0.166
    1UNL     H9   32  -0.260   0.097   0.172
    1UNL    H10   33  -0.355  -0.044   0.169
    1UNL    H11   34  -0.105  -0.098   0.212
    1UNL    H12   35   0.051  -0.252  -0.014
    1UNL    H13   36   0.090  -0.164   0.122
    1UNL    H14   37   0.269  -0.253  -0.074
    1UNL    H15   38   0.252  -0.009   0.191
    1UNL    H16   39   0.472  -0.084   0.309
    1UNL    H17   40   0.475   0.083   0.300
    1UNL    H18   41   0.657  -0.004   0.240
    1UNL    H19   42   0.402   0.181   0.064
    1UNL    H20   43   0.157   0.082  -0.004
    1UNL    H21   44   0.417   0.125  -0.190
    1UNL    H22   45   0.582  -0.022  -0.006
    1UNL    H23   46   0.464  -0.155  -0.150
    1UNL    H24   47   0.222  -0.054  -0.276
    1UNL    H25   48  -0.154  -0.113  -0.191
    1UNL    H26   49  -0.033   0.015  -0.179
    1UNL    H27   50  -0.186   0.171  -0.099
    1UNL    H28   51  -0.274   0.073  -0.229
   0.00000   0.00000   0.00000   0.00000   0.00000   0.00000   0.00000   0.00000   0.00000
Generated with MDTraj, t= 12.0
 51
    1UNL     C1    1  -0.563   0.100   0.055
    1UNL     C2    2  -0.449   0.132  -0.047
    1UNL     C3    3  -0.510   0.129  -0.187
    1UNL     C4    4  -0.338   0.022  -0.034
    1UNL     O1    5  -0.395  -0.106  -0.045
    1UNL     C5    6  -0.271   0.035   0.112
    1UNL     C6    7  -0.136  -0.033   0.119
    1UNL     C7    8  -0.066  -0.079   0.017
    1UNL     C8    9   0.063  -0.145   0.037
    1UNL     O2   10   0.151  -0.117  -0.074
    1UNL     C9   11   0.283  -0.164  -0.053
    1UNL     O3   12   0.342  -0.152   0.077
    1UNL    C10   13   0.345  -0.024   0.138
    1UNL    C11   14   0.465  -0.036   0.238
    1UNL     O4   15   0.588  -0.040   0.171
    1UNL    C12   16   0.356   0.092   0.047
    1UNL     O5   17   0.231   0.157   0.033
    1UNL    C13   18   0.411   0.065  -0.098
    1UNL     O6   19   0.549   0.087  -0.117
    1UNL    C14   20   0.378  -0.077  -0.154
    1UNL     O7   21   0.303  -0.064  -0.276
    1UNL    C15   22  -0.121  -0.072  -0.127
    1UNL    C16   23  -0.229   0.035  -0.140
    1UNL     H1   24  -0.599  -0.005   0.057
    1UNL     H2   25  -0.652   0.150   0.019
    1UNL     H3   26  -0.545   0.150   0.156
    1UNL     H4   27  -0.420   0.238  -0.038
    1UNL     H5   28  -0.439   0.129  -0.269
    1UNL     H6   29  -0.584   0.219  -0.207
    1UNL     H7   30  -0.558   0.029  -0.198
    1UNL     H8   31  -0.432  -0.126  -0.138
    1UNL     H9   32  -0.259   0.137   0.135
    1UNL    H10   33  -0.324  -0.008   0.194
    1UNL    H11   34  -0.089  -0.037   0.209
    1UNL    H12   35   0.050  -0.251   0.057
    1UNL    H13   36   0.112  -0.112   0.124
    1UNL    H14   37   0.279  -0.269  -0.082
    1UNL    H15   38   0.255  -0.011   0.195
    1UNL    H16   39   0.469  -0.124   0.298
    1UNL    H17   40   0.471   0.042   0.305
    1UNL    H18   41   0.658  -0.028   0.234
    1UNL    H19   42   0.422   0.162   0.104
    1UNL    H20   43   0.175   0.114  -0.042
    1UNL    H21   44   0.359   0.132  -0.174
    1UNL    H22   45   0.607   0.041  -0.044
    1UNL    H23   46   0.472  -0.132  -0.180
    1UNL    H24   47   0.209  -0.088  -0.268
    1UNL    H25   48  -0.174  -0.162  -0.134
    1UNL    H26   49  -0.047  -0.068  -0.208
    1UNL    H27   50  -0.186   0.144  -0.127
    1UNL    H28   51  -0.269   0.044  -0.248
   0.00000   0.00000   0.00000   0.00000   0.00000   0.00000   0.00000   0.00000   0.00000
Generated with MDTraj, t= 13.0
 51
    1UNL     C1    1  -0.556   0.130   0.049
    1UNL     C2    2  -0.447   0.133  -0.056
    1UNL     C3    3  -0.504   0.130  -0.196
    1UNL     C4    4  -0.338   0.022  -0.034
    1UNL     O1    5  -0.411  -0.108  -0.010
    1UNL     C5    6  -0.259   0.048   0.099
    1UNL     C6    7  -0.138  -0.041   0.111
    1UNL     C7    8  -0.091  -0.108   0.007
    1UNL     C8    9   0.052  -0.167   0.025
    1UNL     O2   10   0.150  -0.091  -0.051
    1UNL     C9   11   0.278  -0.145  -0.049
    1UNL     O3   12   0.337  -0.154   0.080
    1UNL    C10   13   0.364  -0.022   0.142
    1UNL    C11   14   0.498  -0.034   0.224
    1UNL     O4   15   0.611  -0.057   0.141
    1UNL    C12   16   0.350   0.104   0.052
    1UNL     O5   17   0.209   0.149   0.042
    1UNL    C13   18   0.408   0.077  -0.089
    1UNL     O6   19   0.549   0.092  -0.091
    1UNL    C14   20   0.375  -0.058  -0.144
    1UNL     O7   21   0.330  -0.058  -0.275
    1UNL    C15   22  -0.146  -0.110  -0.133
    1UNL    C16   23  -0.243   0.008  -0.156
    1UNL     H1   24  -0.639   0.062   0.030
    1UNL     H2   25  -0.612   0.224   0.042
    1UNL     H3   26  -0.533   0.135   0.160
    1UNL     H4   27  -0.407   0.235  -0.045
    1UNL     H5   28  -0.432   0.132  -0.276
    1UNL     H6   29  -0.576   0.222  -0.225
    1UNL     H7   30  -0.560   0.036  -0.224
    1UNL     H8   31  -0.463  -0.133  -0.092
    1UNL     H9   32  -0.206   0.139   0.095
    1UNL    H10   33  -0.320   0.045   0.186
    1UNL    H11   34  -0.069  -0.027   0.202
    1UNL    H12   35   0.055  -0.270  -0.013
    1UNL    H13   36   0.074  -0.178   0.129
    1UNL    H14   37   0.268  -0.243  -0.091
    1UNL    H15   38   0.278  -0.020   0.208
    1UNL    H16   39   0.489  -0.108   0.299
    1UNL    H17   40   0.532   0.057   0.261
    1UNL    H18   41   0.704  -0.081   0.181
    1UNL    H19   42   0.404   0.192   0.100
    1UNL    H20   43   0.151   0.072   0.034
    1UNL    H21   44   0.374   0.149  -0.173
    1UNL    H22   45   0.587   0.035  -0.022
    1UNL    H23   46   0.472  -0.111  -0.135
    1UNL    H24   47   0.234  -0.042  -0.280
    1UNL    H25   48  -0.184  -0.205  -0.157
    1UNL    H26   49  -0.056  -0.095  -0.195
    1UNL    H27   50  -0.197   0.112  -0.182
    1UNL    H28   51  -0.311   0.002  -0.247
   0.00000   0.00000   0.00000   0.00000   0.00000   0.00000   0.00000   0.00000   0.00000
Generated with MDTraj, t= 14.0
 51
    1UNL     C1    1  -0.524   0.169   0.061
    1UNL     C2    2  -0.433   0.139  -0.067
    1UNL     C3    3  -0.513   0.119  -0.190
    1UNL     C4    4  -0.348   0.010  -0.039
    1UNL     O1    5  -0.435  -0.107  -0.008
    1UNL     C5    6  -0.261   0.033   0.091
    1UNL     C6    7  -0.121  -0.017   0.081
    1UNL     C7    8  -0.077  -0.105  -0.011
    1UNL     C8    9   0.059  -0.166   0.003
    1UNL     O2   10   0.150  -0.088  -0.062
    1UNL     C9   11   0.280  -0.139  -0.041
    1UNL     O3   12   0.314  -0.141   0.095
    1UNL    C10   13   0.367  -0.017   0.154
    1UNL    C11   14   0.506  -0.041   0.208
    1UNL     O4   15   0.604  -0.071   0.117
    1UNL    C12   16   0.356   0.111   0.068
    1UNL     O5   17   0.214   0.155   0.057
    1UNL    C13   18   0.409   0.088  -0.080
    1UNL     O6   19   0.552   0.106  -0.084
    1UNL    C14   20   0.383  -0.059  -0.133
    1UNL     O7   21   0.334  -0.052  -0.263
    1UNL    C15   22  -0.166  -0.146  -0.125
    1UNL    C16   23  -0.257  -0.032  -0.160
    1UNL     H1   24  -0.584   0.079   0.077
    1UNL     H2   25  -0.603   0.247   0.060
    1UNL     H3   26  -0.464   0.193   0.152
    1UNL     H4   27  -0.377   0.232  -0.080
    1UNL     H5   28  -0.456   0.125  -0.284
    1UNL     H6   29  -0.586   0.198  -0.201
    1UNL     H7   30  -0.572   0.018  -0.202
    1UNL     H8   31  -0.484  -0.139  -0.086
    1UNL     H9   32  -0.260   0.134   0.120
    1UNL    H10   33  -0.305  -0.022   0.173
    1UNL    H11   34  -0.051   0.031   0.142
    1UNL    H12   35   0.055  -0.272  -0.033
    1UNL    H13   36   0.082  -0.170   0.109
    1UNL    H14   37   0.273  -0.239  -0.074
    1UNL    H15   38   0.297  -0.006   0.239
    1UNL    H16   39   0.509  -0.130   0.271
    1UNL    H17   40   0.536   0.040   0.270
    1UNL    H18   41   0.655  -0.157   0.142
    1UNL    H19   42   0.407   0.194   0.129
    1UNL    H20   43   0.156   0.081   0.022
    1UNL    H21   44   0.370   0.155  -0.165
    1UNL    H22   45   0.587   0.049  -0.009
    1UNL    H23   46   0.480  -0.109  -0.138
    1UNL    H24   47   0.236  -0.035  -0.268
    1UNL    H25   48  -0.229  -0.221  -0.081
    1UNL    H26   49  -0.114  -0.193  -0.208
    1UNL    H27   50  -0.195   0.062  -0.183
    1UNL    H28   51  -0.321  -0.027  -0.255
   0.00000   0.00000   0.00000   0.00000   0.00000   0.00000   0.00000   0.00000   0.00000
Generated with MDTraj, t= 15.0
 51
    1UNL     C1    1  -0.511   0.200   0.042
    1UNL     C2    2  -0.433   0.141  -0.080
    1UNL     C3    3  -0.538   0.113  -0.191
    1UNL     C4    4  -0.358   0.007  -0.032
    1UNL     O1    5  -0.456  -0.088   0.023
    1UNL     C5    6  -0.253   0.036   0.083
    1UNL     C6    7  -0.129  -0.043   0.084
    1UNL     C7    8  -0.080  -0.127  -0.008
    1UNL     C8    9   0.062  -0.171  -0.008
    1UNL     O2   10   0.154  -0.095  -0.080
    1UNL     C9   11   0.300  -0.129  -0.049
    1UNL     O3   12   0.333  -0.141   0.088
    1UNL    C10   13   0.364  -0.017   0.157
    1UNL    C11   14   0.506  -0.044   0.214
    1UNL     O4   15   0.588  -0.109   0.112
    1UNL    C12   16   0.359   0.115   0.068
    1UNL     O5   17   0.218   0.158   0.076
    1UNL    C13   18   0.411   0.094  -0.073
    1UNL     O6   19   0.548   0.140  -0.079
    1UNL    C14   20   0.400  -0.043  -0.132
    1UNL     O7   21   0.360  -0.040  -0.267
    1UNL    C15   22  -0.178  -0.164  -0.117
    1UNL    C16   23  -0.275  -0.056  -0.158
    1UNL     H1   24  -0.574   0.118   0.078
    1UNL     H2   25  -0.585   0.281   0.020
    1UNL     H3   26  -0.435   0.237   0.110
    1UNL     H4   27  -0.367   0.221  -0.118
    1UNL     H5   28  -0.472   0.069  -0.274
    1UNL     H6   29  -0.580   0.199  -0.225
    1UNL     H7   30  -0.623   0.040  -0.162
    1UNL     H8   31  -0.517  -0.115  -0.044
    1UNL     H9   32  -0.225   0.136   0.062
    1UNL    H10   33  -0.304   0.043   0.177
    1UNL    H11   34  -0.062  -0.005   0.161
    1UNL    H12   35   0.064  -0.279  -0.044
    1UNL    H13   36   0.102  -0.177   0.094
    1UNL    H14   37   0.312  -0.227  -0.086
    1UNL    H15   38   0.291  -0.020   0.243
    1UNL    H16   39   0.491  -0.102   0.311
    1UNL    H17   40   0.558   0.045   0.247
    1UNL    H18   41   0.551  -0.196   0.119
    1UNL    H19   42   0.424   0.194   0.118
    1UNL    H20   43   0.164   0.077   0.044
    1UNL    H21   44   0.357   0.163  -0.145
    1UNL    H22   45   0.604   0.086  -0.014
    1UNL    H23   46   0.499  -0.087  -0.121
    1UNL    H24   47   0.263  -0.039  -0.269
    1UNL    H25   48  -0.237  -0.247  -0.079
    1UNL    H26   49  -0.129  -0.199  -0.206
    1UNL    H27   50  -0.236   0.032  -0.215
    1UNL    H28   51  -0.353  -0.091  -0.235
   0.00000   0.00000   0.00000   0.00000   0.00000   0.00000   0.00000   0.00000   0.00000
Generated with MDTraj, t= 16.0
 51
    1UNL     C1    1  -0.492   0.194   0.036
    1UNL     C2    2  -0.422   0.127  -0.083
    1UNL     C3    3  -0.533   0.090  -0.191
    1UNL     C4    4  -0.335   0.008  -0.029
    1UNL     O1    5  -0.421  -0.092   0.038
    1UNL     C5    6  -0.234   0.065   0.071
    1UNL     C6    7  -0.100  -0.005   0.064
    1UNL     C7    8  -0.081  -0.113  -0.016
    1UNL     C8    9   0.062  -0.164  -0.016
    1UNL     O2   10   0.151  -0.078  -0.086
    1UNL     C9   11   0.288  -0.130  -0.057
    1UNL     O3   12   0.312  -0.143   0.081
    1UNL    C10   13   0.354  -0.028   0.152
    1UNL    C11   14   0.500  -0.050   0.204
    1UNL     O4   15   0.589  -0.094   0.105
    1UNL    C12   16   0.337   0.109   0.079
    1UNL     O5   17   0.195   0.138   0.066
    1UNL    C13   18   0.409   0.099  -0.061
    1UNL     O6   19   0.552   0.113  -0.042
    1UNL    C14   20   0.387  -0.042  -0.135
    1UNL     O7   21   0.330  -0.022  -0.263
    1UNL    C15   22  -0.184  -0.176  -0.095
    1UNL    C16   23  -0.267  -0.062  -0.154
    1UNL     H1   24  -0.583   0.148   0.078
    1UNL     H2   25  -0.529   0.297   0.003
    1UNL     H3   26  -0.423   0.227   0.110
    1UNL     H4   27  -0.349   0.195  -0.130
    1UNL     H5   28  -0.474   0.044  -0.280
    1UNL     H6   29  -0.580   0.176  -0.228
    1UNL     H7   30  -0.610   0.025  -0.148
    1UNL     H8   31  -0.481  -0.131  -0.025
    1UNL     H9   32  -0.219   0.171   0.058
    1UNL    H10   33  -0.275   0.055   0.169
    1UNL    H11   34  -0.008   0.049   0.097
    1UNL    H12   35   0.083  -0.268  -0.060
    1UNL    H13   36   0.101  -0.181   0.087
    1UNL    H14   37   0.293  -0.230  -0.094
    1UNL    H15   38   0.288  -0.038   0.244
    1UNL    H16   39   0.506  -0.124   0.295
    1UNL    H17   40   0.525   0.051   0.246
    1UNL    H18   41   0.594  -0.197   0.112
    1UNL    H19   42   0.381   0.198   0.135
    1UNL    H20   43   0.161   0.059   0.021
    1UNL    H21   44   0.370   0.180  -0.129
    1UNL    H22   45   0.574   0.040   0.011
    1UNL    H23   46   0.478  -0.098  -0.148
    1UNL    H24   47   0.233  -0.013  -0.255
    1UNL    H25   48  -0.252  -0.230  -0.029
    1UNL    H26   49  -0.148  -0.243  -0.169
    1UNL    H27   50  -0.204   0.004  -0.216
    1UNL    H28   51  -0.356  -0.094  -0.219
   0.00000   0.00000   0.00000   0.00000   0.00000   0.00000   0.00000   0.00000   0.00000
Generated with MDTraj, t= 17.0
 51
    1UNL     C1    1  -0.500   0.196   0.029
    1UNL     C2    2  -0.430   0.126  -0.089
    1UNL     C3    3  -0.525   0.068  -0.190
    1UNL     C4    4  -0.334   0.018  -0.032
    1UNL     O1    5  -0.405  -0.064   0.067
    1UNL     C5    6  -0.224   0.083   0.050
    1UNL     C6    7  -0.102  -0.011   0.070
    1UNL     C7    8  -0.073  -0.119  -0.007
    1UNL     C8    9   0.067  -0.173   0.006
    1UNL     O2   10   0.150  -0.087  -0.082
    1UNL     C9   11   0.289  -0.128  -0.079
    1UNL     O3   12   0.335  -0.165   0.053
    1UNL    C10   13   0.348  -0.050   0.142
    1UNL    C11   14   0.476  -0.061   0.234
    1UNL     O4   15   0.578  -0.107   0.153
    1UNL    C12   16   0.340   0.097   0.076
    1UNL     O5   17   0.200   0.132   0.062
    1UNL    C13   18   0.407   0.108  -0.063
    1UNL     O6   19   0.550   0.138  -0.064
    1UNL    C14   20   0.377  -0.027  -0.145
    1UNL     O7   21   0.322   0.005  -0.272
    1UNL    C15   22  -0.171  -0.175  -0.100
    1UNL    C16   23  -0.279  -0.068  -0.152
    1UNL     H1   24  -0.554   0.143   0.109
    1UNL     H2   25  -0.574   0.274  -0.007
    1UNL     H3   26  -0.430   0.266   0.068
    1UNL     H4   27  -0.362   0.196  -0.138
    1UNL     H5   28  -0.475   0.039  -0.285
    1UNL     H6   29  -0.606   0.139  -0.224
    1UNL     H7   30  -0.580  -0.008  -0.148
    1UNL     H8   31  -0.463  -0.131   0.026
    1UNL     H9   32  -0.191   0.172  -0.003
    1UNL    H10   33  -0.258   0.122   0.143
    1UNL    H11   34  -0.025   0.025   0.127
    1UNL    H12   35   0.080  -0.282  -0.025
    1UNL    H13   36   0.104  -0.176   0.109
    1UNL    H14   37   0.296  -0.221  -0.140
    1UNL    H15   38   0.256  -0.065   0.208
    1UNL    H16   39   0.465  -0.155   0.305
    1UNL    H17   40   0.501   0.030   0.298
    1UNL    H18   41   0.553  -0.175   0.094
    1UNL    H19   42   0.387   0.182   0.132
    1UNL    H20   43   0.159   0.075  -0.005
    1UNL    H21   44   0.368   0.195  -0.120
    1UNL    H22   45   0.593   0.088   0.009
    1UNL    H23   46   0.471  -0.073  -0.165
    1UNL    H24   47   0.224   0.015  -0.265
    1UNL    H25   48  -0.238  -0.233  -0.033
    1UNL    H26   49  -0.131  -0.237  -0.173
    1UNL    H27   50  -0.230   0.008  -0.216
    1UNL    H28   51  -0.352  -0.120  -0.220
   0.00000   0.00000   0.00000   0.00000   0.00000   0.00000   0.00000   0.00000   0.00000
Generated with MDTraj, t= 18.0
 51
    1UNL     C1    1  -0.496   0.201   0.027
    1UNL     C2    2  -0.434   0.122  -0.088
    1UNL     C3    3  -0.545   0.051  -0.170
    1UNL     C4    4  -0.330   0.016  -0.032
    1UNL     O1    5  -0.411  -0.068   0.061
    1UNL     C5    6  -0.226   0.082   0.054
    1UNL     C6    7  -0.094   0.010   0.039
    1UNL     C7    8  -0.064  -0.112  -0.009
    1UNL     C8    9   0.071  -0.168  -0.002
    1UNL     O2   10   0.156  -0.093  -0.088
    1UNL     C9   11   0.294  -0.132  -0.086
    1UNL     O3   12   0.345  -0.159   0.049
    1UNL    C10   13   0.342  -0.055   0.135
    1UNL    C11   14   0.453  -0.070   0.238
    1UNL     O4   15   0.576  -0.080   0.180
    1UNL    C12   16   0.346   0.089   0.070
    1UNL     O5   17   0.214   0.143   0.059
    1UNL    C13   18   0.420   0.094  -0.063
    1UNL     O6   19   0.560   0.094  -0.055
    1UNL    C14   20   0.375  -0.022  -0.159
    1UNL     O7   21   0.302   0.031  -0.269
    1UNL    C15   22  -0.180  -0.179  -0.092
    1UNL    C16   23  -0.269  -0.065  -0.146
    1UNL     H1   24  -0.552   0.134   0.094
    1UNL     H2   25  -0.570   0.271  -0.017
    1UNL     H3   26  -0.420   0.263   0.072
    1UNL     H4   27  -0.372   0.194  -0.144
    1UNL     H5   28  -0.506   0.011  -0.254
    1UNL     H6   29  -0.620   0.126  -0.219
    1UNL     H7   30  -0.612  -0.009  -0.116
    1UNL     H8   31  -0.471  -0.129   0.009
    1UNL     H9   32  -0.230   0.190   0.030
    1UNL    H10   33  -0.256   0.091   0.156
    1UNL    H11   34  -0.009   0.066   0.094
    1UNL    H12   35   0.074  -0.277  -0.028
    1UNL    H13   36   0.106  -0.154   0.100
    1UNL    H14   37   0.311  -0.229  -0.141
    1UNL    H15   38   0.244  -0.057   0.191
    1UNL    H16   39   0.438  -0.162   0.310
    1UNL    H17   40   0.461   0.020   0.308
    1UNL    H18   41   0.588  -0.150   0.107
    1UNL    H19   42   0.398   0.160   0.136
    1UNL    H20   43   0.157   0.076   0.006
    1UNL    H21   44   0.392   0.191  -0.106
    1UNL    H22   45   0.584   0.056   0.037
    1UNL    H23   46   0.465  -0.066  -0.198
    1UNL    H24   47   0.207   0.024  -0.249
    1UNL    H25   48  -0.235  -0.256  -0.035
    1UNL    H26   49  -0.137  -0.221  -0.177
    1UNL    H27   50  -0.206  -0.001  -0.211
    1UNL    H28   51  -0.348  -0.103  -0.211
   0.00000   0.00000   0.00000   0.00000   0.00000   0.00000   0.00000   0.00000   0.00000
Generated with MDTraj, t= 19.0
 51
    1UNL     C1    1  -0.494   0.205   0.031
    1UNL     C2    2  -0.441   0.112  -0.082
    1UNL     C3    3  -0.567   0.056  -0.154
    1UNL     C4    4  -0.339   0.002  -0.031
    1UNL     O1    5  -0.420  -0.077   0.064
    1UNL     C5    6  -0.226   0.065   0.048
    1UNL     C6    7  -0.098  -0.012   0.047
    1UNL     C7    8  -0.077  -0.125  -0.015
    1UNL     C8    9   0.066  -0.165  -0.020
    1UNL     O2   10   0.151  -0.069  -0.078
    1UNL     C9   11   0.284  -0.113  -0.081
    1UNL     O3   12   0.348  -0.136   0.046
    1UNL    C10   13   0.337  -0.029   0.130
    1UNL    C11   14   0.453  -0.048   0.244
    1UNL     O4   15   0.575  -0.101   0.194
    1UNL    C12   16   0.359   0.109   0.062
    1UNL     O5   17   0.238   0.174   0.042
    1UNL    C13   18   0.442   0.077  -0.071
    1UNL     O6   19   0.572   0.049  -0.034
    1UNL    C14   20   0.379  -0.025  -0.164
    1UNL     O7   21   0.323   0.043  -0.275
    1UNL    C15   22  -0.185  -0.184  -0.105
    1UNL    C16   23  -0.288  -0.081  -0.149
    1UNL     H1   24  -0.559   0.141   0.091
    1UNL     H2   25  -0.556   0.286  -0.002
    1UNL     H3   26  -0.407   0.249   0.084
    1UNL     H4   27  -0.379   0.172  -0.150
    1UNL     H5   28  -0.532   0.006  -0.237
    1UNL     H6   29  -0.616   0.148  -0.194
    1UNL     H7   30  -0.636   0.015  -0.085
    1UNL     H8   31  -0.491  -0.121   0.006
    1UNL     H9   32  -0.209   0.170   0.020
    1UNL    H10   33  -0.268   0.079   0.146
    1UNL    H11   34  -0.019   0.021   0.102
    1UNL    H12   35   0.073  -0.259  -0.077
    1UNL    H13   36   0.102  -0.176   0.082
    1UNL    H14   37   0.285  -0.214  -0.133
    1UNL    H15   38   0.238  -0.016   0.179
    1UNL    H16   39   0.414  -0.121   0.326
    1UNL    H17   40   0.471   0.040   0.312
    1UNL    H18   41   0.553  -0.178   0.135
    1UNL    H19   42   0.425   0.163   0.128
    1UNL    H20   43   0.182   0.106   0.005
    1UNL    H21   44   0.447   0.167  -0.127
    1UNL    H22   45   0.572   0.007   0.050
    1UNL    H23   46   0.461  -0.085  -0.206
    1UNL    H24   47   0.224   0.043  -0.270
    1UNL    H25   48  -0.232  -0.257  -0.037
    1UNL    H26   49  -0.139  -0.231  -0.186
    1UNL    H27   50  -0.227  -0.006  -0.206
    1UNL    H28   51  -0.359  -0.110  -0.224
   0.00000   0.00000   0.00000   0.00000   0.00000   0.00000   0.00000   0.00000   0.00000
Generated with MDTraj, t= 20.0
 51
    1UNL     C1    1  -0.503   0.188   0.044
    1UNL     C2    2  -0.454   0.109  -0.074
    1UNL     C3    3  -0.569   0.051  -0.155
    1UNL     C4    4  -0.350  -0.004  -0.021
    1UNL     O1    5  -0.420  -0.090   0.068
    1UNL     C5    6  -0.239   0.059   0.058
    1UNL     C6    7  -0.097  -0.003   0.041
    1UNL     C7    8  -0.074  -0.107  -0.037
    1UNL     C8    9   0.069  -0.151  -0.038
    1UNL     O2   10   0.155  -0.059  -0.089
    1UNL     C9   11   0.282  -0.118  -0.078
    1UNL     O3   12   0.325  -0.130   0.058
    1UNL    C10   13   0.345  -0.008   0.138
    1UNL    C11   14   0.447  -0.043   0.251
    1UNL     O4   15   0.531  -0.141   0.214
    1UNL    C12   16   0.379   0.115   0.053
    1UNL     O5   17   0.265   0.188   0.002
    1UNL    C13   18   0.471   0.075  -0.078
    1UNL     O6   19   0.603   0.056  -0.036
    1UNL    C14   20   0.392  -0.029  -0.162
    1UNL     O7   21   0.321   0.043  -0.263
    1UNL    C15   22  -0.181  -0.181  -0.111
    1UNL    C16   23  -0.298  -0.082  -0.140
    1UNL     H1   24  -0.544   0.127   0.124
    1UNL     H2   25  -0.573   0.265   0.030
    1UNL     H3   26  -0.417   0.248   0.085
    1UNL     H4   27  -0.394   0.171  -0.142
    1UNL     H5   28  -0.529   0.013  -0.250
    1UNL     H6   29  -0.622   0.131  -0.180
    1UNL     H7   30  -0.634  -0.008  -0.092
    1UNL     H8   31  -0.498  -0.137   0.024
    1UNL     H9   32  -0.229   0.165   0.039
    1UNL    H10   33  -0.258   0.052   0.165
    1UNL    H11   34  -0.014   0.018   0.117
    1UNL    H12   35   0.076  -0.238  -0.102
    1UNL    H13   36   0.094  -0.172   0.064
    1UNL    H14   37   0.283  -0.222  -0.125
    1UNL    H15   38   0.239   0.009   0.161
    1UNL    H16   39   0.385  -0.067   0.343
    1UNL    H17   40   0.510   0.038   0.289
    1UNL    H18   41   0.474  -0.211   0.173
    1UNL    H19   42   0.437   0.185   0.109
    1UNL    H20   43   0.202   0.123  -0.038
    1UNL    H21   44   0.478   0.161  -0.140
    1UNL    H22   45   0.591  -0.002   0.048
    1UNL    H23   46   0.464  -0.094  -0.217
    1UNL    H24   47   0.225   0.043  -0.245
    1UNL    H25   48  -0.218  -0.259  -0.047
    1UNL    H26   49  -0.131  -0.221  -0.195
    1UNL    H27   50  -0.262  -0.006  -0.212
    1UNL    H28   51  -0.377  -0.128  -0.197
   0.00000   0.00000   0.00000   0.00000   0.00000   0.00000   0.00000   0.00000   0.00000
Generated with MDTraj, t= 21.0
 51
    1UNL     C1    1  -0.530   0.152   0.070
    1UNL     C2    2  -0.466   0.105  -0.061
    1UNL     C3    3  -0.578   0.045  -0.153
    1UNL     C4    4  -0.351   0.003  -0.026
    1UNL     O1    5  -0.400  -0.098   0.067
    1UNL     C5    6  -0.241   0.074   0.051
    1UNL     C6    7  -0.099   0.022   0.038
    1UNL     C7    8  -0.072  -0.088  -0.028
    1UNL     C8    9   0.067  -0.135  -0.039
    1UNL     O2   10   0.165  -0.053  -0.108
    1UNL     C9   11   0.292  -0.112  -0.090
    1UNL     O3   12   0.309  -0.140   0.056
    1UNL    C10   13   0.338  -0.014   0.134
    1UNL    C11   14   0.425  -0.039   0.260
    1UNL     O4   15   0.534  -0.119   0.232
    1UNL    C12   16   0.382   0.113   0.042
    1UNL     O5   17   0.269   0.176  -0.005
    1UNL    C13   18   0.478   0.069  -0.077
    1UNL     O6   19   0.598   0.016  -0.030
    1UNL    C14   20   0.402  -0.024  -0.166
    1UNL     O7   21   0.346   0.032  -0.278
    1UNL    C15   22  -0.183  -0.164  -0.099
    1UNL    C16   23  -0.292  -0.064  -0.148
    1UNL     H1   24  -0.576   0.074   0.131
    1UNL     H2   25  -0.609   0.214   0.039
    1UNL     H3   26  -0.467   0.224   0.129
    1UNL     H4   27  -0.413   0.192  -0.106
    1UNL     H5   28  -0.543   0.027  -0.256
    1UNL     H6   29  -0.665   0.099  -0.167
    1UNL     H7   30  -0.618  -0.046  -0.115
    1UNL     H8   31  -0.480  -0.147   0.038
    1UNL     H9   32  -0.246   0.182   0.040
    1UNL    H10   33  -0.266   0.059   0.157
    1UNL    H11   34  -0.019   0.056   0.099
    1UNL    H12   35   0.061  -0.230  -0.092
    1UNL    H13   36   0.107  -0.155   0.059
    1UNL    H14   37   0.297  -0.213  -0.141
    1UNL    H15   38   0.241   0.016   0.169
    1UNL    H16   39   0.371  -0.069   0.351
    1UNL    H17   40   0.461   0.057   0.290
    1UNL    H18   41   0.509  -0.212   0.208
    1UNL    H19   42   0.437   0.173   0.110
    1UNL    H20   43   0.215   0.108  -0.055
    1UNL    H21   44   0.507   0.150  -0.140
    1UNL    H22   45   0.585  -0.032   0.056
    1UNL    H23   46   0.485  -0.090  -0.207
    1UNL    H24   47   0.271   0.090  -0.246
    1UNL    H25   48  -0.213  -0.244  -0.038
    1UNL    H26   49  -0.139  -0.198  -0.191
    1UNL    H27   50  -0.263   0.010  -0.224
    1UNL    H28   51  -0.362  -0.125  -0.203
   0.00000   0.00000   0.00000   0.00000   0.00000   0.00000   0.00000   0.00000   0.00000
Generated with MDTraj, t= 22.0
 51
    1UNL     C1    1  -0.556   0.133   0.086
    1UNL     C2    2  -0.488   0.092  -0.049
    1UNL     C3    3  -0.595   0.029  -0.134
    1UNL     C4    4  -0.352   0.011  -0.025
    1UNL     O1    5  -0.373  -0.092   0.068
    1UNL     C5    6  -0.231   0.098   0.033
    1UNL     C6    7  -0.098   0.030   0.043
    1UNL     C7    8  -0.064  -0.070  -0.036
    1UNL     C8    9   0.064  -0.137  -0.029
    1UNL     O2   10   0.174  -0.062  -0.100
    1UNL     C9   11   0.296  -0.128  -0.088
    1UNL     O3   12   0.339  -0.143   0.048
    1UNL    C10   13   0.324  -0.024   0.125
    1UNL    C11   14   0.399  -0.036   0.253
    1UNL     O4   15   0.527  -0.097   0.232
    1UNL    C12   16   0.375   0.103   0.053
    1UNL     O5   17   0.280   0.193   0.012
    1UNL    C13   18   0.473   0.068  -0.068
    1UNL     O6   19   0.598   0.010  -0.032
    1UNL    C14   20   0.403  -0.044  -0.166
    1UNL     O7   21   0.344   0.002  -0.288
    1UNL    C15   22  -0.155  -0.123  -0.143
    1UNL    C16   23  -0.291  -0.054  -0.153
    1UNL     H1   24  -0.603   0.049   0.135
    1UNL     H2   25  -0.632   0.208   0.068
    1UNL     H3   26  -0.481   0.185   0.144
    1UNL     H4   27  -0.447   0.188  -0.089
    1UNL     H5   28  -0.567   0.029  -0.237
    1UNL     H6   29  -0.704   0.070  -0.131
    1UNL     H7   30  -0.609  -0.068  -0.101
    1UNL     H8   31  -0.447  -0.145   0.041
    1UNL     H9   32  -0.224   0.197  -0.011
    1UNL    H10   33  -0.273   0.124   0.133
    1UNL    H11   34  -0.037   0.041   0.130
    1UNL    H12   35   0.061  -0.231  -0.084
    1UNL    H13   36   0.090  -0.161   0.072
    1UNL    H14   37   0.285  -0.231  -0.128
    1UNL    H15   38   0.218  -0.015   0.138
    1UNL    H16   39   0.334  -0.093   0.314
    1UNL    H17   40   0.399   0.055   0.308
    1UNL    H18   41   0.522  -0.192   0.214
    1UNL    H19   42   0.417   0.161   0.134
    1UNL    H20   43   0.217   0.156  -0.048
    1UNL    H21   44   0.488   0.158  -0.125
    1UNL    H22   45   0.586  -0.036   0.056
    1UNL    H23   46   0.486  -0.112  -0.204
    1UNL    H24   47   0.253   0.028  -0.264
    1UNL    H25   48  -0.187  -0.218  -0.120
    1UNL    H26   49  -0.101  -0.127  -0.237
    1UNL    H27   50  -0.266   0.025  -0.224
    1UNL    H28   51  -0.372  -0.110  -0.202
   0.00000   0.00000   0.00000   0.00000   0.00000   0.00000   0.00000   0.00000   0.00000
Generated with MDTraj, t= 23.0
 51
    1UNL     C1    1  -0.522   0.121   0.110
    1UNL     C2    2  -0.482   0.091  -0.037
    1UNL     C3    3  -0.596   0.012  -0.103
    1UNL     C4    4  -0.344   0.017  -0.038
    1UNL     O1    5  -0.352  -0.106   0.040
    1UNL     C5    6  -0.231   0.103   0.027
    1UNL     C6    7  -0.096   0.043   0.019
    1UNL     C7    8  -0.079  -0.065  -0.054
    1UNL     C8    9   0.052  -0.141  -0.043
    1UNL     O2   10   0.156  -0.063  -0.103
    1UNL     C9   11   0.284  -0.124  -0.067
    1UNL     O3   12   0.317  -0.137   0.073
    1UNL    C10   13   0.327  -0.011   0.144
    1UNL    C11   14   0.421  -0.031   0.262
    1UNL     O4   15   0.543  -0.097   0.221
    1UNL    C12   16   0.374   0.108   0.044
    1UNL     O5   17   0.268   0.168  -0.014
    1UNL    C13   18   0.466   0.056  -0.065
    1UNL     O6   19   0.593   0.017  -0.021
    1UNL    C14   20   0.396  -0.058  -0.144
    1UNL     O7   21   0.347  -0.003  -0.266
    1UNL    C15   22  -0.165  -0.109  -0.163
    1UNL    C16   23  -0.293  -0.025  -0.180
    1UNL     H1   24  -0.500   0.033   0.167
    1UNL     H2   25  -0.630   0.138   0.132
    1UNL     H3   26  -0.473   0.206   0.151
    1UNL     H4   27  -0.476   0.189  -0.088
    1UNL     H5   28  -0.574   0.007  -0.206
    1UNL     H6   29  -0.695   0.070  -0.073
    1UNL     H7   30  -0.605  -0.087  -0.063
    1UNL     H8   31  -0.403  -0.169  -0.009
    1UNL     H9   32  -0.241   0.202  -0.015
    1UNL    H10   33  -0.257   0.122   0.134
    1UNL    H11   34  -0.016   0.071   0.094
    1UNL    H12   35   0.048  -0.237  -0.096
    1UNL    H13   36   0.082  -0.150   0.062
    1UNL    H14   37   0.274  -0.225  -0.105
    1UNL    H15   38   0.226   0.014   0.172
    1UNL    H16   39   0.368  -0.073   0.341
    1UNL    H17   40   0.438   0.065   0.300
    1UNL    H18   41   0.526  -0.192   0.193
    1UNL    H19   42   0.426   0.187   0.097
    1UNL    H20   43   0.210   0.096  -0.058
    1UNL    H21   44   0.497   0.141  -0.129
    1UNL    H22   45   0.578  -0.033   0.062
    1UNL    H23   46   0.472  -0.137  -0.170
    1UNL    H24   47   0.257   0.030  -0.251
    1UNL    H25   48  -0.179  -0.210  -0.164
    1UNL    H26   49  -0.122  -0.092  -0.262
    1UNL    H27   50  -0.279   0.064  -0.240
    1UNL    H28   51  -0.372  -0.075  -0.238
   0.00000   0.00000   0.00000   0.00000   0.00000   0.00000   0.00000   0.00000   0.00000
Generated with MDTraj, t= 24.0
 51
    1UNL     C1    1  -0.516   0.138   0.112
    1UNL     C2    2  -0.481   0.093  -0.026
    1UNL     C3    3  -0.594  -0.002  -0.084
    1UNL     C4    4  -0.343   0.015  -0.032
    1UNL     O1    5  -0.360  -0.107   0.039
    1UNL     C5    6  -0.228   0.099   0.029
    1UNL     C6    7  -0.103   0.022   0.025
    1UNL     C7    8  -0.083  -0.070  -0.070
    1UNL     C8    9   0.051  -0.143  -0.065
    1UNL     O2   10   0.155  -0.055  -0.097
    1UNL     C9   11   0.283  -0.123  -0.067
    1UNL     O3   12   0.309  -0.129   0.076
    1UNL    C10   13   0.339  -0.006   0.148
    1UNL    C11   14   0.436  -0.026   0.270
    1UNL     O4   15   0.523  -0.127   0.244
    1UNL    C12   16   0.371   0.115   0.044
    1UNL     O5   17   0.258   0.178  -0.003
    1UNL    C13   18   0.461   0.066  -0.074
    1UNL     O6   19   0.592   0.057  -0.029
    1UNL    C14   20   0.409  -0.070  -0.139
    1UNL     O7   21   0.383  -0.050  -0.285
    1UNL    C15   22  -0.166  -0.085  -0.191
    1UNL    C16   23  -0.308  -0.018  -0.181
    1UNL     H1   24  -0.518   0.047   0.170
    1UNL     H2   25  -0.622   0.172   0.125
    1UNL     H3   26  -0.458   0.210   0.161
    1UNL     H4   27  -0.488   0.181  -0.093
    1UNL     H5   28  -0.568  -0.036  -0.182
    1UNL     H6   29  -0.687   0.061  -0.077
    1UNL     H7   30  -0.613  -0.096  -0.019
    1UNL     H8   31  -0.385  -0.180  -0.021
    1UNL     H9   32  -0.216   0.198  -0.017
    1UNL    H10   33  -0.253   0.122   0.136
    1UNL    H11   34  -0.037   0.044   0.099
    1UNL    H12   35   0.057  -0.212  -0.153
    1UNL    H13   36   0.070  -0.190   0.034
    1UNL    H14   37   0.261  -0.222  -0.100
    1UNL    H15   38   0.247   0.032   0.192
    1UNL    H16   39   0.387  -0.053   0.356
    1UNL    H17   40   0.472   0.070   0.289
    1UNL    H18   41   0.487  -0.195   0.186
    1UNL    H19   42   0.425   0.197   0.095
    1UNL    H20   43   0.205   0.103  -0.038
    1UNL    H21   44   0.469   0.148  -0.149
    1UNL    H22   45   0.590  -0.010   0.039
    1UNL    H23   46   0.481  -0.155  -0.140
    1UNL    H24   47   0.290  -0.016  -0.298
    1UNL    H25   48  -0.184  -0.179  -0.229
    1UNL    H26   49  -0.105  -0.043  -0.269
    1UNL    H27   50  -0.325   0.074  -0.236
    1UNL    H28   51  -0.393  -0.073  -0.225
   0.00000   0.00000   0.00000   0.00000   0.00000   0.00000   0.00000   0.00000   0.00000
Generated with MDTraj, t= 25.0
 51
    1UNL     C1    1  -0.514   0.141   0.121
    1UNL     C2    2  -0.483   0.091  -0.022
    1UNL     C3    3  -0.597   0.017  -0.077
    1UNL     C4    4  -0.350   0.011  -0.029
    1UNL     O1    5  -0.375  -0.115   0.034
    1UNL     C5    6  -0.234   0.091   0.045
    1UNL     C6    7  -0.097   0.032   0.021
    1UNL     C7    8  -0.068  -0.054  -0.074
    1UNL     C8    9   0.056  -0.137  -0.064
    1UNL     O2   10   0.172  -0.074  -0.115
    1UNL     C9   11   0.290  -0.135  -0.066
    1UNL     O3   12   0.282  -0.134   0.076
    1UNL    C10   13   0.312  -0.008   0.143
    1UNL    C11   14   0.419  -0.033   0.252
    1UNL     O4   15   0.527  -0.092   0.190
    1UNL    C12   16   0.361   0.113   0.048
    1UNL     O5   17   0.251   0.174  -0.016
    1UNL    C13   18   0.469   0.055  -0.051
    1UNL     O6   19   0.602   0.066  -0.002
    1UNL    C14   20   0.422  -0.073  -0.128
    1UNL     O7   21   0.407  -0.054  -0.276
    1UNL    C15   22  -0.165  -0.088  -0.186
    1UNL    C16   23  -0.304  -0.019  -0.177
    1UNL     H1   24  -0.548   0.055   0.176
    1UNL     H2   25  -0.596   0.215   0.125
    1UNL     H3   26  -0.426   0.184   0.162
    1UNL     H4   27  -0.471   0.180  -0.087
    1UNL     H5   28  -0.577  -0.060  -0.160
    1UNL     H6   29  -0.685   0.074  -0.096
    1UNL     H7   30  -0.641  -0.057   0.004
    1UNL     H8   31  -0.419  -0.183  -0.025
    1UNL     H9   32  -0.226   0.197   0.012
    1UNL    H10   33  -0.250   0.099   0.153
    1UNL    H11   34  -0.019   0.057   0.102
    1UNL    H12   35   0.051  -0.239  -0.107
    1UNL    H13   36   0.093  -0.143   0.041
    1UNL    H14   37   0.274  -0.238  -0.094
    1UNL    H15   38   0.219   0.028   0.189
    1UNL    H16   39   0.365  -0.099   0.312
    1UNL    H17   40   0.451   0.048   0.312
    1UNL    H18   41   0.503  -0.178   0.141
    1UNL    H19   42   0.406   0.198   0.104
    1UNL    H20   43   0.206   0.101  -0.060
    1UNL    H21   44   0.477   0.140  -0.127
    1UNL    H22   45   0.613   0.003   0.076
    1UNL    H23   46   0.491  -0.155  -0.111
    1UNL    H24   47   0.314  -0.057  -0.300
    1UNL    H25   48  -0.174  -0.192  -0.168
    1UNL    H26   49  -0.133  -0.087  -0.288
    1UNL    H27   50  -0.306   0.071  -0.236
    1UNL    H28   51  -0.388  -0.073  -0.228
   0.00000   0.00000   0.00000   0.00000   0.00000   0.00000   0.00000   0.00000   0.00000
Generated with MDTraj, t= 26.0
 51
    1UNL     C1    1  -0.517   0.132   0.123
    1UNL     C2    2  -0.469   0.109  -0.022
    1UNL     C3    3  -0.580   0.037  -0.099
    1UNL     C4    4  -0.338   0.023  -0.026
    1UNL     O1    5  -0.369  -0.100   0.050
    1UNL     C5    6  -0.220   0.096   0.040
    1UNL     C6    7  -0.092   0.016   0.026
    1UNL     C7    8  -0.067  -0.074  -0.067
    1UNL     C8    9   0.062  -0.155  -0.071
    1UNL     O2   10   0.170  -0.078  -0.120
    1UNL     C9   11   0.294  -0.127  -0.072
    1UNL     O3   12   0.310  -0.137   0.070
    1UNL    C10   13   0.318  -0.016   0.134
    1UNL    C11   14   0.414  -0.019   0.251
    1UNL     O4   15   0.516  -0.110   0.218
    1UNL    C12   16   0.347   0.107   0.044
    1UNL     O5   17   0.226   0.165   0.010
    1UNL    C13   18   0.445   0.076  -0.071
    1UNL     O6   19   0.569   0.069  -0.009
    1UNL    C14   20   0.423  -0.060  -0.141
    1UNL     O7   21   0.414  -0.052  -0.286
    1UNL    C15   22  -0.176  -0.113  -0.167
    1UNL    C16   23  -0.292  -0.013  -0.173
    1UNL     H1   24  -0.521   0.038   0.177
    1UNL     H2   25  -0.620   0.163   0.114
    1UNL     H3   26  -0.461   0.212   0.171
    1UNL     H4   27  -0.444   0.204  -0.073
    1UNL     H5   28  -0.568   0.016  -0.215
    1UNL     H6   29  -0.682   0.057  -0.082
    1UNL     H7   30  -0.583  -0.076  -0.068
    1UNL     H8   31  -0.408  -0.173  -0.008
    1UNL     H9   32  -0.196   0.198  -0.003
    1UNL    H10   33  -0.235   0.122   0.146
    1UNL    H11   34  -0.013   0.045   0.087
    1UNL    H12   35   0.064  -0.241  -0.141
    1UNL    H13   36   0.091  -0.195   0.029
    1UNL    H14   37   0.288  -0.228  -0.113
    1UNL    H15   38   0.217   0.014   0.171
    1UNL    H16   39   0.376  -0.029   0.349
    1UNL    H17   40   0.452   0.082   0.252
    1UNL    H18   41   0.481  -0.198   0.201
    1UNL    H19   42   0.396   0.181   0.113
    1UNL    H20   43   0.175   0.097  -0.046
    1UNL    H21   44   0.454   0.159  -0.148
    1UNL    H22   45   0.561   0.015   0.071
    1UNL    H23   46   0.514  -0.114  -0.127
    1UNL    H24   47   0.322  -0.067  -0.313
    1UNL    H25   48  -0.219  -0.210  -0.154
    1UNL    H26   49  -0.123  -0.116  -0.255
    1UNL    H27   50  -0.279   0.068  -0.243
    1UNL    H28   51  -0.378  -0.069  -0.216
   0.00000   0.00000   0.00000   0.00000   0.00000   0.00000   0.00000   0.00000   0.00000
Generated with MDTraj, t= 27.0
 51
    1UNL     C1    1  -0.501   0.138   0.116
    1UNL     C2    2  -0.447   0.117  -0.019
    1UNL     C3    3  -0.558   0.082  -0.124
    1UNL     C4    4  -0.331   0.012  -0.024
    1UNL     O1    5  -0.353  -0.100   0.059
    1UNL     C5    6  -0.206   0.093   0.026
    1UNL     C6    7  -0.084   0.006   0.034
    1UNL     C7    8  -0.068  -0.094  -0.050
    1UNL     C8    9   0.064  -0.176  -0.050
    1UNL     O2   10   0.166  -0.103  -0.125
    1UNL     C9   11   0.292  -0.136  -0.079
    1UNL     O3   12   0.304  -0.145   0.064
    1UNL    C10   13   0.299  -0.018   0.143
    1UNL    C11   14   0.396  -0.031   0.252
    1UNL     O4   15   0.525  -0.079   0.215
    1UNL    C12   16   0.337   0.105   0.051
    1UNL     O5   17   0.221   0.151  -0.013
    1UNL    C13   18   0.447   0.072  -0.059
    1UNL     O6   19   0.582   0.080  -0.011
    1UNL    C14   20   0.406  -0.047  -0.149
    1UNL     O7   21   0.348  -0.004  -0.267
    1UNL    C15   22  -0.156  -0.125  -0.171
    1UNL    C16   23  -0.288  -0.042  -0.168
    1UNL     H1   24  -0.547   0.048   0.153
    1UNL     H2   25  -0.583   0.205   0.117
    1UNL     H3   26  -0.428   0.178   0.190
    1UNL     H4   27  -0.406   0.209  -0.064
    1UNL     H5   28  -0.513   0.077  -0.230
    1UNL     H6   29  -0.645   0.150  -0.110
    1UNL     H7   30  -0.599  -0.020  -0.107
    1UNL     H8   31  -0.423  -0.160   0.015
    1UNL     H9   32  -0.188   0.189  -0.034
    1UNL    H10   33  -0.213   0.138   0.126
    1UNL    H11   34   0.001   0.028   0.097
    1UNL    H12   35   0.052  -0.276  -0.091
    1UNL    H13   36   0.100  -0.188   0.054
    1UNL    H14   37   0.300  -0.237  -0.126
    1UNL    H15   38   0.192  -0.012   0.172
    1UNL    H16   39   0.350  -0.101   0.319
    1UNL    H17   40   0.412   0.059   0.316
    1UNL    H18   41   0.514  -0.162   0.160
    1UNL    H19   42   0.374   0.187   0.120
    1UNL    H20   43   0.186   0.081  -0.075
    1UNL    H21   44   0.439   0.158  -0.132
    1UNL    H22   45   0.584   0.025   0.071
    1UNL    H23   46   0.494  -0.103  -0.170
    1UNL    H24   47   0.256  -0.045  -0.274
    1UNL    H25   48  -0.189  -0.224  -0.146
    1UNL    H26   49  -0.109  -0.119  -0.262
    1UNL    H27   50  -0.293   0.042  -0.236
    1UNL    H28   51  -0.360  -0.112  -0.212
   0.00000   0.00000   0.00000   0.00000   0.00000   0.00000   0.00000   0.00000   0.00000
Generated with MDTraj, t= 28.0
 51
    1UNL     C1    1  -0.496   0.172   0.096
    1UNL     C2    2  -0.436   0.123  -0.038
    1UNL     C3    3  -0.547   0.078  -0.135
    1UNL     C4    4  -0.323   0.016  -0.023
    1UNL     O1    5  -0.363  -0.098   0.051
    1UNL     C5    6  -0.194   0.075   0.052
    1UNL     C6    7  -0.074  -0.012   0.042
    1UNL     C7    8  -0.064  -0.115  -0.036
    1UNL     C8    9   0.072  -0.183  -0.056
    1UNL     O2   10   0.162  -0.094  -0.118
    1UNL     C9   11   0.293  -0.136  -0.093
    1UNL     O3   12   0.345  -0.149   0.044
    1UNL    C10   13   0.324  -0.027   0.127
    1UNL    C11   14   0.393  -0.031   0.263
    1UNL     O4   15   0.520  -0.083   0.250
    1UNL    C12   16   0.325   0.106   0.044
    1UNL     O5   17   0.197   0.141  -0.009
    1UNL    C13   18   0.434   0.090  -0.064
    1UNL     O6   19   0.567   0.065  -0.009
    1UNL    C14   20   0.387  -0.026  -0.167
    1UNL     O7   21   0.316   0.017  -0.277
    1UNL    C15   22  -0.168  -0.150  -0.136
    1UNL    C16   23  -0.264  -0.031  -0.164
    1UNL     H1   24  -0.547   0.084   0.136
    1UNL     H2   25  -0.569   0.249   0.099
    1UNL     H3   26  -0.413   0.198   0.164
    1UNL     H4   27  -0.384   0.202  -0.094
    1UNL     H5   28  -0.511   0.059  -0.235
    1UNL     H6   29  -0.627   0.163  -0.117
    1UNL     H7   30  -0.593  -0.011  -0.095
    1UNL     H8   31  -0.431  -0.150  -0.001
    1UNL     H9   32  -0.159   0.178   0.015
    1UNL    H10   33  -0.211   0.113   0.155
    1UNL    H11   34   0.024   0.014   0.095
    1UNL    H12   35   0.062  -0.270  -0.119
    1UNL    H13   36   0.105  -0.206   0.047
    1UNL    H14   37   0.298  -0.236  -0.144
    1UNL    H15   38   0.216  -0.043   0.147
    1UNL    H16   39   0.340  -0.084   0.346
    1UNL    H17   40   0.404   0.074   0.308
    1UNL    H18   41   0.514  -0.168   0.202
    1UNL    H19   42   0.356   0.183   0.122
    1UNL    H20   43   0.174   0.078  -0.075
    1UNL    H21   44   0.441   0.182  -0.127
    1UNL    H22   45   0.551   0.000   0.068
    1UNL    H23   46   0.474  -0.078  -0.198
    1UNL    H24   47   0.223  -0.012  -0.265
    1UNL    H25   48  -0.228  -0.231  -0.098
    1UNL    H26   49  -0.119  -0.174  -0.223
    1UNL    H27   50  -0.211   0.042  -0.226
    1UNL    H28   51  -0.349  -0.057  -0.225
   0.00000   0.00000   0.00000   0.00000   0.00000   0.00000   0.00000   0.00000   0.00000
Generated with MDTraj, t= 29.0
 51
    1UNL     C1    1  -0.453   0.208   0.063
    1UNL     C2    2  -0.409   0.124  -0.056
    1UNL     C3    3  -0.537   0.091  -0.140
    1UNL     C4    4  -0.326   0.001  -0.017
    1UNL     O1    5  -0.414  -0.100   0.042
    1UNL     C5    6  -0.213   0.039   0.080
    1UNL     C6    7  -0.088  -0.038   0.077
    1UNL     C7    8  -0.059  -0.132  -0.012
    1UNL     C8    9   0.082  -0.187  -0.039
    1UNL     O2   10   0.155  -0.089  -0.114
    1UNL     C9   11   0.292  -0.124  -0.103
    1UNL     O3   12   0.320  -0.141   0.036
    1UNL    C10   13   0.300  -0.019   0.119
    1UNL    C11   14   0.384  -0.050   0.248
    1UNL     O4   15   0.514  -0.085   0.210
    1UNL    C12   16   0.341   0.116   0.052
    1UNL     O5   17   0.220   0.175   0.016
    1UNL    C13   18   0.432   0.099  -0.064
    1UNL     O6   19   0.564   0.077  -0.016
    1UNL    C14   20   0.393  -0.019  -0.165
    1UNL     O7   21   0.335   0.022  -0.284
    1UNL    C15   22  -0.159  -0.176  -0.124
    1UNL    C16   23  -0.260  -0.060  -0.144
    1UNL     H1   24  -0.492   0.129   0.127
    1UNL     H2   25  -0.540   0.266   0.040
    1UNL     H3   26  -0.372   0.269   0.104
    1UNL     H4   27  -0.338   0.181  -0.117
    1UNL     H5   28  -0.521   0.026  -0.218
    1UNL     H6   29  -0.600   0.189  -0.166
    1UNL     H7   30  -0.614   0.041  -0.077
    1UNL     H8   31  -0.471  -0.145  -0.022
    1UNL     H9   32  -0.188   0.150   0.078
    1UNL    H10   33  -0.257   0.041   0.181
    1UNL    H11   34  -0.011  -0.007   0.134
    1UNL    H12   35   0.066  -0.275  -0.100
    1UNL    H13   36   0.129  -0.201   0.059
    1UNL    H14   37   0.308  -0.223  -0.153
    1UNL    H15   38   0.191  -0.015   0.126
    1UNL    H16   39   0.336  -0.134   0.307
    1UNL    H17   40   0.385   0.041   0.322
    1UNL    H18   41   0.506  -0.175   0.174
    1UNL    H19   42   0.390   0.183   0.128
    1UNL    H20   43   0.174   0.116  -0.055
    1UNL    H21   44   0.428   0.189  -0.125
    1UNL    H22   45   0.561   0.011   0.056
    1UNL    H23   46   0.486  -0.069  -0.194
    1UNL    H24   47   0.237   0.015  -0.280
    1UNL    H25   48  -0.209  -0.265  -0.098
    1UNL    H26   49  -0.107  -0.187  -0.214
    1UNL    H27   50  -0.220   0.023  -0.205
    1UNL    H28   51  -0.339  -0.096  -0.206
   0.00000   0.00000   0.00000   0.00000   0.00000   0.00000   0.00000   0.00000   0.00000
Generated with MDTraj, t= 30.0
 51
    1UNL     C1    1  -0.455   0.210   0.063
    1UNL     C2    2  -0.413   0.134  -0.056
    1UNL     C3    3  -0.519   0.121  -0.159
    1UNL     C4    4  -0.343  -0.007  -0.022
    1UNL     O1    5  -0.451  -0.084   0.030
    1UNL     C5    6  -0.227   0.008   0.083
    1UNL     C6    7  -0.089  -0.041   0.052
    1UNL     C7    8  -0.068  -0.140  -0.030
    1UNL     C8    9   0.068  -0.200  -0.059
    1UNL     O2   10   0.156  -0.087  -0.089
    1UNL     C9   11   0.293  -0.115  -0.078
    1UNL     O3   12   0.342  -0.133   0.052
    1UNL    C10   13   0.322  -0.019   0.132
    1UNL    C11   14   0.433  -0.029   0.246
    1UNL     O4   15   0.546  -0.090   0.207
    1UNL    C12   16   0.341   0.114   0.052
    1UNL     O5   17   0.208   0.157   0.018
    1UNL    C13   18   0.441   0.101  -0.069
    1UNL     O6   19   0.577   0.079  -0.025
    1UNL    C14   20   0.383  -0.019  -0.163
    1UNL     O7   21   0.320   0.035  -0.278
    1UNL    C15   22  -0.180  -0.191  -0.106
    1UNL    C16   23  -0.281  -0.082  -0.147
    1UNL     H1   24  -0.533   0.153   0.114
    1UNL     H2   25  -0.506   0.303   0.036
    1UNL     H3   26  -0.377   0.241   0.131
    1UNL     H4   27  -0.326   0.187  -0.094
    1UNL     H5   28  -0.494   0.065  -0.246
    1UNL     H6   29  -0.579   0.209  -0.179
    1UNL     H7   30  -0.600   0.057  -0.118
    1UNL     H8   31  -0.500  -0.134  -0.035
    1UNL     H9   32  -0.225   0.115   0.116
    1UNL    H10   33  -0.239  -0.043   0.182
    1UNL    H11   34   0.003  -0.004   0.106
    1UNL    H12   35   0.065  -0.263  -0.147
    1UNL    H13   36   0.102  -0.243   0.036
    1UNL    H14   37   0.309  -0.219  -0.115
    1UNL    H15   38   0.221  -0.032   0.174
    1UNL    H16   39   0.385  -0.090   0.333
    1UNL    H17   40   0.464   0.075   0.289
    1UNL    H18   41   0.516  -0.165   0.148
    1UNL    H19   42   0.388   0.185   0.124
    1UNL    H20   43   0.167   0.090  -0.038
    1UNL    H21   44   0.445   0.199  -0.113
    1UNL    H22   45   0.590   0.021   0.056
    1UNL    H23   46   0.473  -0.073  -0.200
    1UNL    H24   47   0.248   0.104  -0.264
    1UNL    H25   48  -0.230  -0.258  -0.044
    1UNL    H26   49  -0.141  -0.236  -0.197
    1UNL    H27   50  -0.226   0.000  -0.198
    1UNL    H28   51  -0.347  -0.117  -0.224
   0.00000   0.00000   0.00000   0.00000   0.00000   0.00000   0.00000   0.00000   0.00000
Generated with MDTraj, t= 31.0
 51
    1UNL     C1    1  -0.489   0.190   0.054
    1UNL     C2    2  -0.404   0.133  -0.060
    1UNL     C3    3  -0.477   0.136  -0.192
    1UNL     C4    4  -0.341  -0.006  -0.020
    1UNL     O1    5  -0.442  -0.093   0.034
    1UNL     C5    6  -0.232   0.016   0.084
    1UNL     C6    7  -0.094  -0.043   0.061
    1UNL     C7    8  -0.075  -0.144  -0.023
    1UNL     C8    9   0.065  -0.197  -0.047
    1UNL     O2   10   0.145  -0.085  -0.080
    1UNL     C9   11   0.283  -0.119  -0.075
    1UNL     O3   12   0.329  -0.135   0.064
    1UNL    C10   13   0.336  -0.015   0.145
    1UNL    C11   14   0.455  -0.035   0.245
    1UNL     O4   15   0.563  -0.089   0.183
    1UNL    C12   16   0.357   0.116   0.062
    1UNL     O5   17   0.221   0.155   0.037
    1UNL    C13   18   0.431   0.099  -0.074
    1UNL     O6   19   0.567   0.091  -0.048
    1UNL    C14   20   0.375  -0.015  -0.156
    1UNL     O7   21   0.303   0.032  -0.270
    1UNL    C15   22  -0.188  -0.191  -0.117
    1UNL    C16   23  -0.279  -0.074  -0.142
    1UNL     H1   24  -0.584   0.137   0.062
    1UNL     H2   25  -0.518   0.296   0.039
    1UNL     H3   26  -0.443   0.193   0.150
    1UNL     H4   27  -0.311   0.190  -0.068
    1UNL     H5   28  -0.426   0.101  -0.285
    1UNL     H6   29  -0.528   0.220  -0.200
    1UNL     H7   30  -0.557   0.065  -0.167
    1UNL     H8   31  -0.496  -0.125  -0.040
    1UNL     H9   32  -0.214   0.123   0.111
    1UNL    H10   33  -0.271  -0.024   0.182
    1UNL    H11   34  -0.004  -0.003   0.106
    1UNL    H12   35   0.075  -0.253  -0.140
    1UNL    H13   36   0.108  -0.253   0.039
    1UNL    H14   37   0.301  -0.219  -0.115
    1UNL    H15   38   0.245   0.000   0.206
    1UNL    H16   39   0.422  -0.109   0.330
    1UNL    H17   40   0.475   0.072   0.289
    1UNL    H18   41   0.533  -0.169   0.134
    1UNL    H19   42   0.410   0.195   0.119
    1UNL    H20   43   0.180   0.079  -0.012
    1UNL    H21   44   0.406   0.193  -0.120
    1UNL    H22   45   0.583   0.038   0.030
    1UNL    H23   46   0.461  -0.070  -0.208
    1UNL    H24   47   0.209   0.009  -0.272
    1UNL    H25   48  -0.245  -0.269  -0.081
    1UNL    H26   49  -0.143  -0.220  -0.214
    1UNL    H27   50  -0.245   0.003  -0.214
    1UNL    H28   51  -0.365  -0.112  -0.196
   0.00000   0.00000   0.00000   0.00000   0.00000   0.00000   0.00000   0.00000   0.00000
Generated with MDTraj, t= 32.0
 51
    1UNL     C1    1  -0.504   0.170   0.044
    1UNL     C2    2  -0.409   0.133  -0.064
    1UNL     C3    3  -0.477   0.136  -0.203
    1UNL     C4    4  -0.340   0.002  -0.027
    1UNL     O1    5  -0.433  -0.098  -0.002
    1UNL     C5    6  -0.247   0.027   0.098
    1UNL     C6    7  -0.113  -0.037   0.095
    1UNL     C7    8  -0.079  -0.133   0.012
    1UNL     C8    9   0.060  -0.179  -0.001
    1UNL     O2   10   0.145  -0.086  -0.073
    1UNL     C9   11   0.277  -0.124  -0.082
    1UNL     O3   12   0.336  -0.147   0.048
    1UNL    C10   13   0.345  -0.034   0.137
    1UNL    C11   14   0.463  -0.047   0.238
    1UNL     O4   15   0.576  -0.092   0.159
    1UNL    C12   16   0.346   0.104   0.068
    1UNL     O5   17   0.211   0.152   0.043
    1UNL    C13   18   0.417   0.101  -0.074
    1UNL     O6   19   0.561   0.106  -0.051
    1UNL    C14   20   0.368  -0.017  -0.160
    1UNL     O7   21   0.302   0.027  -0.281
    1UNL    C15   22  -0.165  -0.175  -0.096
    1UNL    C16   23  -0.245  -0.054  -0.146
    1UNL     H1   24  -0.557   0.076   0.062
    1UNL     H2   25  -0.581   0.238   0.001
    1UNL     H3   26  -0.455   0.211   0.131
    1UNL     H4   27  -0.325   0.202  -0.056
    1UNL     H5   28  -0.396   0.122  -0.279
    1UNL     H6   29  -0.527   0.229  -0.212
    1UNL     H7   30  -0.550   0.062  -0.199
    1UNL     H8   31  -0.474  -0.128  -0.088
    1UNL     H9   32  -0.234   0.134   0.123
    1UNL    H10   33  -0.299  -0.013   0.192
    1UNL    H11   34  -0.033  -0.008   0.158
    1UNL    H12   35   0.073  -0.278  -0.046
    1UNL    H13   36   0.111  -0.187   0.098
    1UNL    H14   37   0.284  -0.225  -0.121
    1UNL    H15   38   0.248  -0.035   0.191
    1UNL    H16   39   0.432  -0.127   0.317
    1UNL    H17   40   0.494   0.058   0.281
    1UNL    H18   41   0.558  -0.178   0.112
    1UNL    H19   42   0.406   0.176   0.120
    1UNL    H20   43   0.166   0.078  -0.005
    1UNL    H21   44   0.400   0.194  -0.129
    1UNL    H22   45   0.576   0.037   0.025
    1UNL    H23   46   0.457  -0.076  -0.202
    1UNL    H24   47   0.208  -0.010  -0.284
    1UNL    H25   48  -0.230  -0.254  -0.071
    1UNL    H26   49  -0.106  -0.210  -0.182
    1UNL    H27   50  -0.179   0.027  -0.184
    1UNL    H28   51  -0.308  -0.064  -0.235
   0.00000   0.00000   0.00000   0.00000   0.00000   0.00000   0.00000   0.00000   0.00000
Generated with MDTraj, t= 33.0
 51
    1UNL     C1    1  -0.520   0.172   0.037
    1UNL     C2    2  -0.415   0.132  -0.072
    1UNL     C3    3  -0.481   0.120  -0.209
    1UNL     C4    4  -0.337   0.007  -0.032
    1UNL     O1    5  -0.429  -0.105  -0.026
    1UNL     C5    6  -0.262   0.015   0.098
    1UNL     C6    7  -0.123  -0.035   0.119
    1UNL     C7    8  -0.066  -0.109   0.026
    1UNL     C8    9   0.070  -0.166   0.031
    1UNL     O2   10   0.146  -0.097  -0.074
    1UNL     C9   11   0.277  -0.133  -0.077
    1UNL     O3   12   0.348  -0.154   0.051
    1UNL    C10   13   0.353  -0.043   0.145
    1UNL    C11   14   0.482  -0.040   0.220
    1UNL     O4   15   0.590  -0.094   0.138
    1UNL    C12   16   0.338   0.096   0.071
    1UNL     O5   17   0.203   0.143   0.057
    1UNL    C13   18   0.405   0.095  -0.074
    1UNL     O6   19   0.554   0.104  -0.057
    1UNL    C14   20   0.360  -0.027  -0.157
    1UNL     O7   21   0.276   0.014  -0.269
    1UNL    C15   22  -0.139  -0.135  -0.103
    1UNL    C16   23  -0.226  -0.018  -0.145
    1UNL     H1   24  -0.602   0.105   0.013
    1UNL     H2   25  -0.570   0.272   0.034
    1UNL     H3   26  -0.486   0.147   0.138
    1UNL     H4   27  -0.339   0.211  -0.069
    1UNL     H5   28  -0.411   0.102  -0.289
    1UNL     H6   29  -0.538   0.217  -0.230
    1UNL     H7   30  -0.553   0.049  -0.206
    1UNL     H8   31  -0.457  -0.145  -0.116
    1UNL     H9   32  -0.276   0.119   0.132
    1UNL    H10   33  -0.321  -0.049   0.175
    1UNL    H11   34  -0.072  -0.013   0.219
    1UNL    H12   35   0.076  -0.273   0.002
    1UNL    H13   36   0.123  -0.157   0.127
    1UNL    H14   37   0.288  -0.226  -0.130
    1UNL    H15   38   0.266  -0.046   0.215
    1UNL    H16   39   0.491  -0.117   0.306
    1UNL    H17   40   0.515   0.065   0.250
    1UNL    H18   41   0.559  -0.164   0.074
    1UNL    H19   42   0.391   0.169   0.128
    1UNL    H20   43   0.153   0.073   0.017
    1UNL    H21   44   0.383   0.185  -0.133
    1UNL    H22   45   0.571   0.035   0.004
    1UNL    H23   46   0.455  -0.069  -0.208
    1UNL    H24   47   0.190  -0.025  -0.249
    1UNL    H25   48  -0.209  -0.220  -0.104
    1UNL    H26   49  -0.082  -0.156  -0.191
    1UNL    H27   50  -0.177   0.080  -0.166
    1UNL    H28   51  -0.271  -0.037  -0.244
   0.00000   0.00000   0.00000   0.00000   0.00000   0.00000   0.00000   0.00000   0.00000
Generated with MDTraj, t= 34.0
 51
    1UNL     C1    1  -0.530   0.134   0.041
    1UNL     C2    2  -0.428   0.140  -0.072
    1UNL     C3    3  -0.487   0.141  -0.211
    1UNL     C4    4  -0.336   0.015  -0.041
    1UNL     O1    5  -0.417  -0.098  -0.045
    1UNL     C5    6  -0.264   0.028   0.100
    1UNL     C6    7  -0.146  -0.064   0.114
    1UNL     C7    8  -0.090  -0.129   0.012
    1UNL     C8    9   0.054  -0.181   0.021
    1UNL     O2   10   0.139  -0.084  -0.047
    1UNL     C9   11   0.272  -0.130  -0.052
    1UNL     O3   12   0.338  -0.146   0.080
    1UNL    C10   13   0.369  -0.028   0.154
    1UNL    C11   14   0.503  -0.042   0.208
    1UNL     O4   15   0.601  -0.090   0.114
    1UNL    C12   16   0.361   0.109   0.070
    1UNL     O5   17   0.231   0.153   0.077
    1UNL    C13   18   0.404   0.093  -0.078
    1UNL     O6   19   0.547   0.105  -0.082
    1UNL    C14   20   0.359  -0.037  -0.141
    1UNL     O7   21   0.280  -0.013  -0.263
    1UNL    C15   22  -0.145  -0.132  -0.121
    1UNL    C16   23  -0.225  -0.009  -0.149
    1UNL     H1   24  -0.567   0.034   0.066
    1UNL     H2   25  -0.630   0.180   0.031
    1UNL     H3   26  -0.489   0.175   0.135
    1UNL     H4   27  -0.363   0.225  -0.048
    1UNL     H5   28  -0.423   0.142  -0.293
    1UNL     H6   29  -0.556   0.230  -0.228
    1UNL     H7   30  -0.561   0.058  -0.224
    1UNL     H8   31  -0.453  -0.109  -0.138
    1UNL     H9   32  -0.237   0.132   0.129
    1UNL    H10   33  -0.341   0.000   0.181
    1UNL    H11   34  -0.093  -0.070   0.200
    1UNL    H12   35   0.064  -0.278  -0.031
    1UNL    H13   36   0.107  -0.184   0.119
    1UNL    H14   37   0.271  -0.232  -0.093
    1UNL    H15   38   0.291  -0.016   0.235
    1UNL    H16   39   0.513  -0.113   0.295
    1UNL    H17   40   0.550   0.055   0.237
    1UNL    H18   41   0.572  -0.179   0.084
    1UNL    H19   42   0.414   0.185   0.127
    1UNL    H20   43   0.177   0.078   0.039
    1UNL    H21   44   0.354   0.176  -0.135
    1UNL    H22   45   0.580   0.031  -0.017
    1UNL    H23   46   0.458  -0.081  -0.172
    1UNL    H24   47   0.192   0.021  -0.233
    1UNL    H25   48  -0.206  -0.222  -0.153
    1UNL    H26   49  -0.069  -0.132  -0.193
    1UNL    H27   50  -0.156   0.076  -0.149
    1UNL    H28   51  -0.275  -0.000  -0.248
   0.00000   0.00000   0.00000   0.00000   0.00000   0.00000   0.00000   0.00000   0.00000
Generated with MDTraj, t= 35.0
 51
    1UNL     C1    1  -0.546   0.134   0.040
    1UNL     C2    2  -0.441   0.133  -0.057
    1UNL     C3    3  -0.501   0.161  -0.201
    1UNL     C4    4  -0.357   0.006  -0.049
    1UNL     O1    5  -0.437  -0.113  -0.055
    1UNL     C5    6  -0.283  -0.002   0.092
    1UNL     C6    7  -0.145  -0.053   0.108
    1UNL     C7    8  -0.087  -0.112   0.002
    1UNL     C8    9   0.053  -0.168   0.008
    1UNL     O2   10   0.152  -0.077  -0.037
    1UNL     C9   11   0.283  -0.132  -0.030
    1UNL     O3   12   0.347  -0.143   0.099
    1UNL    C10   13   0.388  -0.019   0.157
    1UNL    C11   14   0.533  -0.036   0.211
    1UNL     O4   15   0.610  -0.095   0.104
    1UNL    C12   16   0.362   0.108   0.066
    1UNL     O5   17   0.234   0.152   0.081
    1UNL    C13   18   0.416   0.086  -0.081
    1UNL     O6   19   0.556   0.111  -0.094
    1UNL    C14   20   0.370  -0.057  -0.132
    1UNL     O7   21   0.284  -0.036  -0.253
    1UNL    C15   22  -0.149  -0.113  -0.134
    1UNL    C16   23  -0.244   0.004  -0.159
    1UNL     H1   24  -0.640   0.086   0.015
    1UNL     H2   25  -0.592   0.234   0.048
    1UNL     H3   26  -0.514   0.102   0.143
    1UNL     H4   27  -0.372   0.213  -0.022
    1UNL     H5   28  -0.426   0.182  -0.272
    1UNL     H6   29  -0.581   0.238  -0.205
    1UNL     H7   30  -0.559   0.061  -0.231
    1UNL     H8   31  -0.484  -0.120  -0.141
    1UNL     H9   32  -0.286   0.100   0.140
    1UNL    H10   33  -0.357  -0.057   0.159
    1UNL    H11   34  -0.094  -0.052   0.210
    1UNL    H12   35   0.070  -0.247  -0.067
    1UNL    H13   36   0.075  -0.196   0.113
    1UNL    H14   37   0.271  -0.241  -0.055
    1UNL    H15   38   0.312  -0.021   0.240
    1UNL    H16   39   0.543  -0.106   0.297
    1UNL    H17   40   0.583   0.052   0.245
    1UNL    H18   41   0.563  -0.180   0.105
    1UNL    H19   42   0.431   0.182   0.112
    1UNL    H20   43   0.170   0.075   0.064
    1UNL    H21   44   0.368   0.163  -0.149
    1UNL    H22   45   0.603   0.057  -0.030
    1UNL    H23   46   0.463  -0.111  -0.157
    1UNL    H24   47   0.196  -0.008  -0.221
    1UNL    H25   48  -0.209  -0.209  -0.151
    1UNL    H26   49  -0.080  -0.122  -0.213
    1UNL    H27   50  -0.203   0.105  -0.161
    1UNL    H28   51  -0.290   0.005  -0.262
   0.00000   0.00000   0.00000   0.00000   0.00000   0.00000   0.00000   0.00000   0.00000
Generated with MDTraj, t= 36.0
 51
    1UNL     C1    1  -0.565   0.130   0.049
    1UNL     C2    2  -0.449   0.133  -0.056
    1UNL     C3    3  -0.513   0.169  -0.196
    1UNL     C4    4  -0.364   0.004  -0.047
    1UNL     O1    5  -0.445  -0.115  -0.069
    1UNL     C5    6  -0.304  -0.010   0.097
    1UNL     C6    7  -0.167  -0.071   0.110
    1UNL     C7    8  -0.086  -0.099   0.005
    1UNL     C8    9   0.051  -0.159   0.020
    1UNL     O2   10   0.147  -0.077  -0.042
    1UNL     C9   11   0.282  -0.130  -0.042
    1UNL     O3   12   0.326  -0.133   0.099
    1UNL    C10   13   0.394  -0.009   0.152
    1UNL    C11   14   0.537  -0.038   0.201
    1UNL     O4   15   0.623  -0.099   0.111
    1UNL    C12   16   0.373   0.115   0.065
    1UNL     O5   17   0.240   0.153   0.066
    1UNL    C13   18   0.433   0.086  -0.076
    1UNL     O6   19   0.569   0.102  -0.086
    1UNL    C14   20   0.380  -0.055  -0.128
    1UNL     O7   21   0.320  -0.048  -0.261
    1UNL    C15   22  -0.150  -0.108  -0.130
    1UNL    C16   23  -0.245   0.005  -0.150
    1UNL     H1   24  -0.629   0.042   0.041
    1UNL     H2   25  -0.644   0.205   0.034
    1UNL     H3   26  -0.512   0.133   0.148
    1UNL     H4   27  -0.384   0.219  -0.028
    1UNL     H5   28  -0.439   0.204  -0.280
    1UNL     H6   29  -0.586   0.247  -0.180
    1UNL     H7   30  -0.577   0.078  -0.218
    1UNL     H8   31  -0.499  -0.122  -0.147
    1UNL     H9   32  -0.314   0.089   0.151
    1UNL    H10   33  -0.369  -0.073   0.165
    1UNL    H11   34  -0.131  -0.097   0.204
    1UNL    H12   35   0.051  -0.253  -0.034
    1UNL    H13   36   0.085  -0.164   0.125
    1UNL    H14   37   0.268  -0.237  -0.076
    1UNL    H15   38   0.326  -0.005   0.238
    1UNL    H16   39   0.540  -0.105   0.288
    1UNL    H17   40   0.577   0.053   0.234
    1UNL    H18   41   0.563  -0.174   0.079
    1UNL    H19   42   0.434   0.201   0.104
    1UNL    H20   43   0.192   0.072   0.058
    1UNL    H21   44   0.386   0.162  -0.144
    1UNL    H22   45   0.616   0.037  -0.027
    1UNL    H23   46   0.465  -0.118  -0.146
    1UNL    H24   47   0.234  -0.004  -0.255
    1UNL    H25   48  -0.202  -0.209  -0.144
    1UNL    H26   49  -0.078  -0.107  -0.208
    1UNL    H27   50  -0.192   0.100  -0.145
    1UNL    H28   51  -0.288   0.014  -0.254
   0.00000   0.00000   0.00000   0.00000   0.00000   0.00000   0.00000   0.00000   0.00000
Generated with MDTraj, t= 37.0
 51
    1UNL     C1    1  -0.564   0.104   0.049
    1UNL     C2    2  -0.453   0.124  -0.050
    1UNL     C3    3  -0.513   0.154  -0.187
    1UNL     C4    4  -0.351   0.003  -0.043
    1UNL     O1    5  -0.422  -0.118  -0.078
    1UNL     C5    6  -0.297  -0.016   0.100
    1UNL     C6    7  -0.154  -0.054   0.125
    1UNL     C7    8  -0.079  -0.091   0.020
    1UNL     C8    9   0.064  -0.135   0.032
    1UNL     O2   10   0.151  -0.071  -0.065
    1UNL     C9   11   0.282  -0.125  -0.047
    1UNL     O3   12   0.316  -0.141   0.100
    1UNL    C10   13   0.368  -0.016   0.150
    1UNL    C11   14   0.502  -0.047   0.208
    1UNL     O4   15   0.586  -0.112   0.119
    1UNL    C12   16   0.368   0.108   0.050
    1UNL     O5   17   0.243   0.178   0.059
    1UNL    C13   18   0.431   0.080  -0.092
    1UNL     O6   19   0.564   0.090  -0.085
    1UNL    C14   20   0.379  -0.061  -0.139
    1UNL     O7   21   0.328  -0.049  -0.268
    1UNL    C15   22  -0.131  -0.082  -0.117
    1UNL    C16   23  -0.233   0.025  -0.144
    1UNL     H1   24  -0.610   0.007   0.027
    1UNL     H2   25  -0.651   0.171   0.039
    1UNL     H3   26  -0.512   0.098   0.148
    1UNL     H4   27  -0.400   0.216  -0.015
    1UNL     H5   28  -0.428   0.196  -0.261
    1UNL     H6   29  -0.581   0.242  -0.184
    1UNL     H7   30  -0.574   0.075  -0.230
    1UNL     H8   31  -0.460  -0.104  -0.165
    1UNL     H9   32  -0.310   0.067   0.179
    1UNL    H10   33  -0.361  -0.093   0.151
    1UNL    H11   34  -0.112  -0.068   0.225
    1UNL    H12   35   0.079  -0.243   0.021
    1UNL    H13   36   0.095  -0.107   0.133
    1UNL    H14   37   0.268  -0.232  -0.076
    1UNL    H15   38   0.301   0.001   0.233
    1UNL    H16   39   0.491  -0.109   0.294
    1UNL    H17   40   0.549   0.041   0.238
    1UNL    H18   41   0.530  -0.165   0.061
    1UNL    H19   42   0.436   0.187   0.094
    1UNL    H20   43   0.184   0.102   0.026
    1UNL    H21   44   0.399   0.162  -0.162
    1UNL    H22   45   0.602   0.021  -0.020
    1UNL    H23   46   0.464  -0.125  -0.149
    1UNL    H24   47   0.238  -0.008  -0.252
    1UNL    H25   48  -0.182  -0.178  -0.141
    1UNL    H26   49  -0.043  -0.076  -0.185
    1UNL    H27   50  -0.189   0.124  -0.137
    1UNL    H28   51  -0.265   0.015  -0.252
   0.00000   0.00000   0.00000   0.00000   0.00000   0.00000   0.00000   0.00000   0.00000
Generated with MDTraj, t= 38.0
 51
    1UNL     C1    1  -0.585   0.073   0.038
    1UNL     C2    2  -0.468   0.121  -0.044
    1UNL     C3    3  -0.517   0.140  -0.194
    1UNL     C4    4  -0.350   0.016  -0.026
    1UNL     O1    5  -0.398  -0.112  -0.071
    1UNL     C5    6  -0.295   0.006   0.114
    1UNL     C6    7  -0.155  -0.055   0.124
    1UNL     C7    8  -0.073  -0.079   0.019
    1UNL     C8    9   0.068  -0.135   0.032
    1UNL     O2   10   0.151  -0.087  -0.073
    1UNL     C9   11   0.284  -0.140  -0.061
    1UNL     O3   12   0.334  -0.139   0.076
    1UNL    C10   13   0.356  -0.014   0.141
    1UNL    C11   14   0.497  -0.027   0.221
    1UNL     O4   15   0.597  -0.114   0.152
    1UNL    C12   16   0.362   0.109   0.051
    1UNL     O5   17   0.229   0.157   0.029
    1UNL    C13   18   0.436   0.066  -0.083
    1UNL     O6   19   0.573   0.069  -0.073
    1UNL    C14   20   0.379  -0.073  -0.156
    1UNL     O7   21   0.316  -0.031  -0.278
    1UNL    C15   22  -0.121  -0.050  -0.118
    1UNL    C16   23  -0.236   0.054  -0.121
    1UNL     H1   24  -0.641  -0.002  -0.022
    1UNL     H2   25  -0.665   0.149   0.044
    1UNL     H3   26  -0.562   0.031   0.136
    1UNL     H4   27  -0.435   0.221  -0.008
    1UNL     H5   28  -0.457   0.207  -0.255
    1UNL     H6   29  -0.613   0.208  -0.195
    1UNL     H7   30  -0.549   0.052  -0.248
    1UNL     H8   31  -0.429  -0.096  -0.163
    1UNL     H9   32  -0.305   0.100   0.179
    1UNL    H10   33  -0.354  -0.061   0.182
    1UNL    H11   34  -0.120  -0.102   0.218
    1UNL    H12   35   0.064  -0.243   0.031
    1UNL    H13   36   0.115  -0.112   0.129
    1UNL    H14   37   0.275  -0.246  -0.085
    1UNL    H15   38   0.280  -0.002   0.214
    1UNL    H16   39   0.478  -0.073   0.313
    1UNL    H17   40   0.533   0.067   0.241
    1UNL    H18   41   0.579  -0.212   0.158
    1UNL    H19   42   0.406   0.199   0.105
    1UNL    H20   43   0.179   0.073   0.003
    1UNL    H21   44   0.421   0.142  -0.163
    1UNL    H22   45   0.594   0.014   0.000
    1UNL    H23   46   0.463  -0.123  -0.198
    1UNL    H24   47   0.238   0.013  -0.238
    1UNL    H25   48  -0.150  -0.146  -0.160
    1UNL    H26   49  -0.030  -0.010  -0.179
    1UNL    H27   50  -0.190   0.154  -0.107
    1UNL    H28   51  -0.274   0.052  -0.227
   0.00000   0.00000   0.00000   0.00000   0.00000   0.00000   0.00000   0.00000   0.00000
Generated with MDTraj, t= 39.0
 51
    1UNL     C1    1  -0.579   0.030   0.050
    1UNL     C2    2  -0.473   0.108  -0.031
    1UNL     C3    3  -0.523   0.143  -0.170
    1UNL     C4    4  -0.343   0.027  -0.034
    1UNL     O1    5  -0.379  -0.110  -0.067
    1UNL     C5    6  -0.279   0.016   0.107
    1UNL     C6    7  -0.153  -0.065   0.117
    1UNL     C7    8  -0.073  -0.079   0.007
    1UNL     C8    9   0.055  -0.146   0.007
    1UNL     O2   10   0.147  -0.074  -0.062
    1UNL     C9   11   0.279  -0.140  -0.057
    1UNL     O3   12   0.337  -0.151   0.078
    1UNL    C10   13   0.355  -0.021   0.133
    1UNL    C11   14   0.465  -0.028   0.246
    1UNL     O4   15   0.574  -0.083   0.183
    1UNL    C12   16   0.375   0.099   0.036
    1UNL     O5   17   0.257   0.169   0.005
    1UNL    C13   18   0.441   0.058  -0.100
    1UNL     O6   19   0.578   0.042  -0.081
    1UNL    C14   20   0.371  -0.070  -0.153
    1UNL     O7   21   0.299  -0.034  -0.268
    1UNL    C15   22  -0.112  -0.016  -0.126
    1UNL    C16   23  -0.233   0.077  -0.133
    1UNL     H1   24  -0.593  -0.080   0.032
    1UNL     H2   25  -0.679   0.072   0.028
    1UNL     H3   26  -0.565   0.043   0.155
    1UNL     H4   27  -0.452   0.211   0.009
    1UNL     H5   28  -0.469   0.212  -0.224
    1UNL     H6   29  -0.627   0.196  -0.155
    1UNL     H7   30  -0.544   0.047  -0.221
    1UNL     H8   31  -0.406  -0.113  -0.164
    1UNL     H9   32  -0.268   0.119   0.158
    1UNL    H10   33  -0.355  -0.021   0.181
    1UNL    H11   34  -0.134  -0.127   0.198
    1UNL    H12   35   0.034  -0.249  -0.026
    1UNL    H13   36   0.088  -0.158   0.111
    1UNL    H14   37   0.267  -0.243  -0.087
    1UNL    H15   38   0.262  -0.002   0.184
    1UNL    H16   39   0.432  -0.074   0.336
    1UNL    H17   40   0.489   0.068   0.271
    1UNL    H18   41   0.564  -0.178   0.160
    1UNL    H19   42   0.438   0.186   0.074
    1UNL    H20   43   0.198   0.099  -0.021
    1UNL    H21   44   0.436   0.138  -0.174
    1UNL    H22   45   0.583  -0.009   0.010
    1UNL    H23   46   0.452  -0.132  -0.188
    1UNL    H24   47   0.237   0.034  -0.226
    1UNL    H25   48  -0.128  -0.098  -0.196
    1UNL    H26   49  -0.013   0.034  -0.165
    1UNL    H27   50  -0.204   0.181  -0.104
    1UNL    H28   51  -0.263   0.084  -0.240
   0.00000   0.00000   0.00000   0.00000   0.00000   0.00000   0.00000   0.00000   0.00000
Generated with MDTraj, t= 40.0
 51
    1UNL     C1    1  -0.585   0.028   0.069
    1UNL     C2    2  -0.482   0.098  -0.013
    1UNL     C3    3  -0.541   0.131  -0.156
    1UNL     C4    4  -0.350   0.016  -0.025
    1UNL     O1    5  -0.377  -0.115  -0.082
    1UNL     C5    6  -0.286  -0.002   0.114
    1UNL     C6    7  -0.150  -0.059   0.109
    1UNL     C7    8  -0.068  -0.047  -0.001
    1UNL     C8    9   0.056  -0.135  -0.004
    1UNL     O2   10   0.157  -0.076  -0.079
    1UNL     C9   11   0.287  -0.141  -0.071
    1UNL     O3   12   0.331  -0.143   0.070
    1UNL    C10   13   0.346  -0.007   0.131
    1UNL    C11   14   0.449  -0.012   0.251
    1UNL     O4   15   0.556  -0.085   0.224
    1UNL    C12   16   0.378   0.105   0.033
    1UNL     O5   17   0.270   0.173  -0.018
    1UNL    C13   18   0.461   0.045  -0.097
    1UNL     O6   19   0.598   0.005  -0.069
    1UNL    C14   20   0.384  -0.068  -0.161
    1UNL     O7   21   0.312  -0.044  -0.287
    1UNL    C15   22  -0.113   0.011  -0.129
    1UNL    C16   23  -0.245   0.087  -0.115
    1UNL     H1   24  -0.627  -0.068   0.025
    1UNL     H2   25  -0.668   0.100   0.077
    1UNL     H3   26  -0.541   0.015   0.166
    1UNL     H4   27  -0.457   0.200   0.027
    1UNL     H5   28  -0.477   0.191  -0.217
    1UNL     H6   29  -0.629   0.190  -0.152
    1UNL     H7   30  -0.570   0.033  -0.201
    1UNL     H8   31  -0.400  -0.107  -0.181
    1UNL     H9   32  -0.293   0.093   0.179
    1UNL    H10   33  -0.359  -0.062   0.174
    1UNL    H11   34  -0.126  -0.143   0.184
    1UNL    H12   35   0.032  -0.232  -0.050
    1UNL    H13   36   0.074  -0.167   0.100
    1UNL    H14   37   0.271  -0.241  -0.104
    1UNL    H15   38   0.254   0.015   0.184
    1UNL    H16   39   0.396  -0.052   0.337
    1UNL    H17   40   0.474   0.081   0.291
    1UNL    H18   41   0.527  -0.162   0.170
    1UNL    H19   42   0.445   0.187   0.067
    1UNL    H20   43   0.203   0.101  -0.037
    1UNL    H21   44   0.460   0.125  -0.170
    1UNL    H22   45   0.597  -0.024   0.021
    1UNL    H23   46   0.460  -0.140  -0.197
    1UNL    H24   47   0.241   0.019  -0.269
    1UNL    H25   48  -0.117  -0.068  -0.205
    1UNL    H26   49  -0.027   0.080  -0.170
    1UNL    H27   50  -0.212   0.180  -0.058
    1UNL    H28   51  -0.291   0.118  -0.210
   0.00000   0.00000   0.00000   0.00000   0.00000   0.00000   0.00000   0.00000   0.00000
Generated with MDTraj, t= 41.0
 51
    1UNL     C1    1  -0.588   0.020   0.089
    1UNL     C2    2  -0.489   0.096  -0.000
    1UNL     C3    3  -0.557   0.123  -0.139
    1UNL     C4    4  -0.351   0.017  -0.027
    1UNL     O1    5  -0.380  -0.109  -0.092
    1UNL     C5    6  -0.289  -0.013   0.110
    1UNL     C6    7  -0.160  -0.081   0.110
    1UNL     C7    8  -0.078  -0.058   0.002
    1UNL     C8    9   0.058  -0.127   0.001
    1UNL     O2   10   0.154  -0.077  -0.096
    1UNL     C9   11   0.285  -0.128  -0.068
    1UNL     O3   12   0.323  -0.117   0.070
    1UNL    C10   13   0.338   0.012   0.115
    1UNL    C11   14   0.425  -0.007   0.244
    1UNL     O4   15   0.530  -0.100   0.215
    1UNL    C12   16   0.393   0.110   0.016
    1UNL     O5   17   0.290   0.178  -0.054
    1UNL    C13   18   0.481   0.038  -0.094
    1UNL     O6   19   0.604  -0.011  -0.034
    1UNL    C14   20   0.399  -0.079  -0.159
    1UNL     O7   21   0.362  -0.041  -0.297
    1UNL    C15   22  -0.124   0.013  -0.117
    1UNL    C16   23  -0.247   0.100  -0.105
    1UNL     H1   24  -0.614  -0.080   0.045
    1UNL     H2   25  -0.678   0.079   0.108
    1UNL     H3   26  -0.536   0.007   0.185
    1UNL     H4   27  -0.469   0.196   0.045
    1UNL     H5   28  -0.496   0.182  -0.213
    1UNL     H6   29  -0.637   0.183  -0.136
    1UNL     H7   30  -0.594   0.035  -0.189
    1UNL     H8   31  -0.391  -0.095  -0.191
    1UNL     H9   32  -0.285   0.082   0.172
    1UNL    H10   33  -0.359  -0.076   0.172
    1UNL    H11   34  -0.140  -0.150   0.183
    1UNL    H12   35   0.040  -0.235  -0.009
    1UNL    H13   36   0.109  -0.124   0.098
    1UNL    H14   37   0.269  -0.234  -0.075
    1UNL    H15   38   0.243   0.060   0.146
    1UNL    H16   39   0.361  -0.025   0.335
    1UNL    H17   40   0.465   0.085   0.281
    1UNL    H18   41   0.483  -0.190   0.209
    1UNL    H19   42   0.452   0.185   0.068
    1UNL    H20   43   0.227   0.104  -0.081
    1UNL    H21   44   0.504   0.108  -0.173
    1UNL    H22   45   0.581  -0.049   0.057
    1UNL    H23   46   0.475  -0.161  -0.169
    1UNL    H24   47   0.290   0.024  -0.295
    1UNL    H25   48  -0.126  -0.052  -0.207
    1UNL    H26   49  -0.040   0.084  -0.153
    1UNL    H27   50  -0.225   0.184  -0.032
    1UNL    H28   51  -0.286   0.147  -0.197
   0.00000   0.00000   0.00000   0.00000   0.00000   0.00000   0.00000   0.00000   0.00000
Generated with MDTraj, t= 42.0
 51
    1UNL     C1    1  -0.575   0.011   0.101
    1UNL     C2    2  -0.484   0.092   0.010
    1UNL     C3    3  -0.547   0.133  -0.121
    1UNL     C4    4  -0.354   0.010  -0.022
    1UNL     O1    5  -0.389  -0.109  -0.102
    1UNL     C5    6  -0.284  -0.028   0.110
    1UNL     C6    7  -0.144  -0.078   0.092
    1UNL     C7    8  -0.073  -0.055  -0.020
    1UNL     C8    9   0.054  -0.128  -0.032
    1UNL     O2   10   0.162  -0.064  -0.096
    1UNL     C9   11   0.289  -0.132  -0.064
    1UNL     O3   12   0.325  -0.118   0.078
    1UNL    C10   13   0.344   0.023   0.117
    1UNL    C11   14   0.427   0.014   0.246
    1UNL     O4   15   0.510  -0.106   0.252
    1UNL    C12   16   0.402   0.114   0.003
    1UNL     O5   17   0.292   0.182  -0.056
    1UNL    C13   18   0.482   0.030  -0.104
    1UNL     O6   19   0.591  -0.015  -0.024
    1UNL    C14   20   0.398  -0.089  -0.160
    1UNL     O7   21   0.342  -0.046  -0.288
    1UNL    C15   22  -0.123   0.027  -0.132
    1UNL    C16   23  -0.254   0.094  -0.105
    1UNL     H1   24  -0.578  -0.094   0.070
    1UNL     H2   25  -0.674   0.045   0.131
    1UNL     H3   26  -0.517   0.004   0.197
    1UNL     H4   27  -0.456   0.189   0.059
    1UNL     H5   28  -0.488   0.208  -0.180
    1UNL     H6   29  -0.632   0.194  -0.099
    1UNL     H7   30  -0.581   0.060  -0.182
    1UNL     H8   31  -0.393  -0.078  -0.194
    1UNL     H9   32  -0.275   0.057   0.181
    1UNL    H10   33  -0.341  -0.107   0.169
    1UNL    H11   34  -0.115  -0.155   0.173
    1UNL    H12   35   0.031  -0.224  -0.081
    1UNL    H13   36   0.100  -0.160   0.062
    1UNL    H14   37   0.269  -0.237  -0.078
    1UNL    H15   38   0.239   0.065   0.122
    1UNL    H16   39   0.359   0.025   0.338
    1UNL    H17   40   0.490   0.100   0.269
    1UNL    H18   41   0.451  -0.174   0.221
    1UNL    H19   42   0.467   0.190   0.040
    1UNL    H20   43   0.236   0.117  -0.097
    1UNL    H21   44   0.517   0.089  -0.188
    1UNL    H22   45   0.555  -0.063   0.051
    1UNL    H23   46   0.481  -0.164  -0.175
    1UNL    H24   47   0.241  -0.053  -0.280
    1UNL    H25   48  -0.127  -0.028  -0.230
    1UNL    H26   49  -0.041   0.098  -0.176
    1UNL    H27   50  -0.242   0.186  -0.039
    1UNL    H28   51  -0.306   0.136  -0.192
   0.00000   0.00000   0.00000   0.00000   0.00000   0.00000   0.00000   0.00000   0.00000
Generated with MDTraj, t= 43.0
 51
    1UNL     C1    1  -0.577   0.008   0.091
    1UNL     C2    2  -0.476   0.098   0.019
    1UNL     C3    3  -0.543   0.153  -0.117
    1UNL     C4    4  -0.353   0.017  -0.019
    1UNL     O1    5  -0.389  -0.106  -0.094
    1UNL     C5    6  -0.275  -0.019   0.110
    1UNL     C6    7  -0.147  -0.092   0.090
    1UNL     C7    8  -0.076  -0.075  -0.022
    1UNL     C8    9   0.051  -0.151  -0.034
    1UNL     O2   10   0.152  -0.081  -0.102
    1UNL     C9   11   0.283  -0.139  -0.074
    1UNL     O3   12   0.317  -0.117   0.065
    1UNL    C10   13   0.334   0.020   0.124
    1UNL    C11   14   0.407   0.009   0.252
    1UNL     O4   15   0.523  -0.060   0.244
    1UNL    C12   16   0.395   0.114   0.011
    1UNL     O5   17   0.283   0.176  -0.070
    1UNL    C13   18   0.491   0.022  -0.087
    1UNL     O6   19   0.611  -0.025  -0.024
    1UNL    C14   20   0.399  -0.090  -0.162
    1UNL     O7   21   0.352  -0.025  -0.284
    1UNL    C15   22  -0.127   0.012  -0.127
    1UNL    C16   23  -0.251   0.101  -0.101
    1UNL     H1   24  -0.587  -0.087   0.039
    1UNL     H2   25  -0.678   0.052   0.092
    1UNL     H3   26  -0.551  -0.022   0.196
    1UNL     H4   27  -0.450   0.187   0.079
    1UNL     H5   28  -0.480   0.215  -0.169
    1UNL     H6   29  -0.624   0.224  -0.089
    1UNL     H7   30  -0.583   0.078  -0.178
    1UNL     H8   31  -0.405  -0.081  -0.184
    1UNL     H9   32  -0.263   0.076   0.167
    1UNL    H10   33  -0.343  -0.077   0.184
    1UNL    H11   34  -0.109  -0.156   0.162
    1UNL    H12   35   0.047  -0.247  -0.088
    1UNL    H13   36   0.081  -0.177   0.068
    1UNL    H14   37   0.268  -0.248  -0.089
    1UNL    H15   38   0.228   0.049   0.146
    1UNL    H16   39   0.349  -0.031   0.344
    1UNL    H17   40   0.435   0.113   0.288
    1UNL    H18   41   0.511  -0.147   0.191
    1UNL    H19   42   0.456   0.175   0.072
    1UNL    H20   43   0.215   0.100  -0.085
    1UNL    H21   44   0.521   0.084  -0.172
    1UNL    H22   45   0.587  -0.049   0.070
    1UNL    H23   46   0.459  -0.175  -0.203
    1UNL    H24   47   0.333   0.065  -0.254
    1UNL    H25   48  -0.133  -0.050  -0.221
    1UNL    H26   49  -0.039   0.073  -0.169
    1UNL    H27   50  -0.219   0.194  -0.047
    1UNL    H28   51  -0.309   0.141  -0.185
   0.00000   0.00000   0.00000   0.00000   0.00000   0.00000   0.00000   0.00000   0.00000
Generated with MDTraj, t= 44.0
 51
    1UNL     C1    1  -0.579   0.028   0.079
    1UNL     C2    2  -0.465   0.102   0.010
    1UNL     C3    3  -0.519   0.170  -0.114
    1UNL     C4    4  -0.342   0.010  -0.013
    1UNL     O1    5  -0.391  -0.105  -0.090
    1UNL     C5    6  -0.276  -0.027   0.119
    1UNL     C6    7  -0.141  -0.092   0.101
    1UNL     C7    8  -0.068  -0.080  -0.011
    1UNL     C8    9   0.065  -0.145  -0.021
    1UNL     O2   10   0.158  -0.083  -0.101
    1UNL     C9   11   0.295  -0.143  -0.079
    1UNL     O3   12   0.339  -0.138   0.059
    1UNL    C10   13   0.321  -0.003   0.111
    1UNL    C11   14   0.380   0.007   0.251
    1UNL     O4   15   0.511  -0.048   0.253
    1UNL    C12   16   0.385   0.105   0.013
    1UNL     O5   17   0.271   0.185  -0.043
    1UNL    C13   18   0.467   0.041  -0.101
    1UNL     O6   19   0.587  -0.010  -0.038
    1UNL    C14   20   0.394  -0.076  -0.168
    1UNL     O7   21   0.342  -0.031  -0.294
    1UNL    C15   22  -0.112  -0.004  -0.130
    1UNL    C16   23  -0.231   0.084  -0.097
    1UNL     H1   24  -0.633  -0.040   0.014
    1UNL     H2   25  -0.647   0.108   0.115
    1UNL     H3   26  -0.541  -0.029   0.166
    1UNL     H4   27  -0.443   0.185   0.080
    1UNL     H5   28  -0.450   0.230  -0.155
    1UNL     H6   29  -0.600   0.242  -0.093
    1UNL     H7   30  -0.555   0.094  -0.186
    1UNL     H8   31  -0.412  -0.078  -0.179
    1UNL     H9   32  -0.266   0.066   0.181
    1UNL    H10   33  -0.353  -0.086   0.179
    1UNL    H11   34  -0.085  -0.153   0.174
    1UNL    H12   35   0.042  -0.247  -0.053
    1UNL    H13   36   0.112  -0.150   0.077
    1UNL    H14   37   0.285  -0.253  -0.102
    1UNL    H15   38   0.214   0.027   0.095
    1UNL    H16   39   0.304  -0.048   0.321
    1UNL    H17   40   0.376   0.113   0.294
    1UNL    H18   41   0.508  -0.140   0.221
    1UNL    H19   42   0.444   0.169   0.073
    1UNL    H20   43   0.221   0.129  -0.102
    1UNL    H21   44   0.491   0.121  -0.175
    1UNL    H22   45   0.565  -0.034   0.056
    1UNL    H23   46   0.475  -0.151  -0.180
    1UNL    H24   47   0.312  -0.112  -0.341
    1UNL    H25   48  -0.145  -0.071  -0.215
    1UNL    H26   49  -0.025   0.048  -0.182
    1UNL    H27   50  -0.212   0.186  -0.053
    1UNL    H28   51  -0.269   0.113  -0.198
   0.00000   0.00000   0.00000   0.00000   0.00000   0.00000   0.00000   0.00000   0.00000
Generated with MDTraj, t= 45.0
 51
    1UNL     C1    1  -0.563   0.046   0.086
    1UNL     C2    2  -0.448   0.118   0.007
    1UNL     C3    3  -0.495   0.180  -0.121
    1UNL     C4    4  -0.331   0.014  -0.019
    1UNL     O1    5  -0.383  -0.095  -0.092
    1UNL     C5    6  -0.273  -0.034   0.114
    1UNL     C6    7  -0.139  -0.100   0.096
    1UNL     C7    8  -0.059  -0.098  -0.010
    1UNL     C8    9   0.068  -0.175  -0.014
    1UNL     O2   10   0.162  -0.105  -0.097
    1UNL     C9   11   0.296  -0.144  -0.072
    1UNL     O3   12   0.322  -0.129   0.063
    1UNL    C10   13   0.310   0.001   0.113
    1UNL    C11   14   0.395   0.006   0.239
    1UNL     O4   15   0.514  -0.062   0.230
    1UNL    C12   16   0.354   0.108   0.014
    1UNL     O5   17   0.242   0.160  -0.057
    1UNL    C13   18   0.452   0.060  -0.092
    1UNL     O6   19   0.582   0.026  -0.033
    1UNL    C14   20   0.396  -0.071  -0.157
    1UNL     O7   21   0.324  -0.031  -0.280
    1UNL    C15   22  -0.109  -0.020  -0.127
    1UNL    C16   23  -0.216   0.084  -0.101
    1UNL     H1   24  -0.598  -0.049   0.044
    1UNL     H2   25  -0.649   0.116   0.093
    1UNL     H3   26  -0.531   0.025   0.189
    1UNL     H4   27  -0.414   0.203   0.069
    1UNL     H5   28  -0.419   0.252  -0.173
    1UNL     H6   29  -0.578   0.247  -0.112
    1UNL     H7   30  -0.519   0.095  -0.186
    1UNL     H8   31  -0.399  -0.077  -0.187
    1UNL     H9   32  -0.264   0.042   0.195
    1UNL    H10   33  -0.338  -0.113   0.163
    1UNL    H11   34  -0.092  -0.158   0.175
    1UNL    H12   35   0.058  -0.273  -0.067
    1UNL    H13   36   0.098  -0.195   0.090
    1UNL    H14   37   0.295  -0.255  -0.097
    1UNL    H15   38   0.204   0.029   0.129
    1UNL    H16   39   0.325  -0.037   0.322
    1UNL    H17   40   0.407   0.117   0.266
    1UNL    H18   41   0.506  -0.160   0.232
    1UNL    H19   42   0.400   0.181   0.078
    1UNL    H20   43   0.189   0.075  -0.077
    1UNL    H21   44   0.470   0.142  -0.167
    1UNL    H22   45   0.564  -0.017   0.056
    1UNL    H23   46   0.479  -0.130  -0.195
    1UNL    H24   47   0.260   0.044  -0.261
    1UNL    H25   48  -0.160  -0.097  -0.196
    1UNL    H26   49  -0.035   0.028  -0.192
    1UNL    H27   50  -0.161   0.173  -0.056
    1UNL    H28   51  -0.255   0.133  -0.193
   0.00000   0.00000   0.00000   0.00000   0.00000   0.00000   0.00000   0.00000   0.00000
Generated with MDTraj, t= 46.0
 51
    1UNL     C1    1  -0.543   0.080   0.099
    1UNL     C2    2  -0.430   0.129   0.005
    1UNL     C3    3  -0.493   0.194  -0.123
    1UNL     C4    4  -0.323   0.019  -0.020
    1UNL     O1    5  -0.387  -0.087  -0.098
    1UNL     C5    6  -0.273  -0.041   0.106
    1UNL     C6    7  -0.147  -0.124   0.092
    1UNL     C7    8  -0.065  -0.118  -0.014
    1UNL     C8    9   0.063  -0.198  -0.024
    1UNL     O2   10   0.159  -0.125  -0.111
    1UNL     C9   11   0.293  -0.142  -0.068
    1UNL     O3   12   0.315  -0.135   0.076
    1UNL    C10   13   0.317   0.002   0.128
    1UNL    C11   14   0.422   0.009   0.245
    1UNL     O4   15   0.529  -0.074   0.230
    1UNL    C12   16   0.333   0.117   0.018
    1UNL     O5   17   0.206   0.159  -0.029
    1UNL    C13   18   0.432   0.077  -0.096
    1UNL     O6   19   0.576   0.077  -0.037
    1UNL    C14   20   0.389  -0.056  -0.153
    1UNL     O7   21   0.338  -0.056  -0.292
    1UNL    C15   22  -0.106  -0.041  -0.142
    1UNL    C16   23  -0.206   0.073  -0.106
    1UNL     H1   24  -0.580  -0.019   0.064
    1UNL     H2   25  -0.634   0.145   0.097
    1UNL     H3   26  -0.516   0.061   0.202
    1UNL     H4   27  -0.377   0.209   0.058
    1UNL     H5   28  -0.408   0.248  -0.188
    1UNL     H6   29  -0.555   0.277  -0.101
    1UNL     H7   30  -0.541   0.114  -0.183
    1UNL     H8   31  -0.411  -0.053  -0.189
    1UNL     H9   32  -0.237   0.034   0.182
    1UNL    H10   33  -0.351  -0.102   0.156
    1UNL    H11   34  -0.106  -0.187   0.166
    1UNL    H12   35   0.038  -0.301  -0.060
    1UNL    H13   36   0.119  -0.218   0.070
    1UNL    H14   37   0.308  -0.252  -0.095
    1UNL    H15   38   0.216   0.022   0.164
    1UNL    H16   39   0.359  -0.019   0.339
    1UNL    H17   40   0.455   0.118   0.254
    1UNL    H18   41   0.514  -0.173   0.237
    1UNL    H19   42   0.372   0.209   0.066
    1UNL    H20   43   0.164   0.071  -0.060
    1UNL    H21   44   0.424   0.156  -0.174
    1UNL    H22   45   0.570   0.028   0.049
    1UNL    H23   46   0.483  -0.111  -0.158
    1UNL    H24   47   0.242  -0.050  -0.292
    1UNL    H25   48  -0.167  -0.109  -0.215
    1UNL    H26   49  -0.019  -0.007  -0.197
    1UNL    H27   50  -0.150   0.157  -0.058
    1UNL    H28   51  -0.239   0.127  -0.199
   0.00000   0.00000   0.00000   0.00000   0.00000   0.00000   0.00000   0.00000   0.00000
Generated with MDTraj, t= 47.0
 51
    1UNL     C1    1  -0.519   0.105   0.106
    1UNL     C2    2  -0.411   0.138   0.008
    1UNL     C3    3  -0.475   0.211  -0.106
    1UNL     C4    4  -0.327   0.014  -0.037
    1UNL     O1    5  -0.405  -0.082  -0.107
    1UNL     C5    6  -0.275  -0.056   0.099
    1UNL     C6    7  -0.141  -0.122   0.090
    1UNL     C7    8  -0.064  -0.122  -0.019
    1UNL     C8    9   0.068  -0.185  -0.029
    1UNL     O2   10   0.164  -0.104  -0.103
    1UNL     C9   11   0.287  -0.157  -0.065
    1UNL     O3   12   0.312  -0.147   0.077
    1UNL    C10   13   0.311  -0.016   0.135
    1UNL    C11   14   0.423  -0.001   0.245
    1UNL     O4   15   0.549  -0.026   0.190
    1UNL    C12   16   0.314   0.108   0.035
    1UNL     O5   17   0.186   0.136  -0.007
    1UNL    C13   18   0.411   0.073  -0.086
    1UNL     O6   19   0.547   0.104  -0.043
    1UNL    C14   20   0.403  -0.074  -0.139
    1UNL     O7   21   0.367  -0.068  -0.277
    1UNL    C15   22  -0.117  -0.065  -0.152
    1UNL    C16   23  -0.211   0.059  -0.130
    1UNL     H1   24  -0.599   0.051   0.049
    1UNL     H2   25  -0.569   0.199   0.140
    1UNL     H3   26  -0.490   0.043   0.188
    1UNL     H4   27  -0.342   0.205   0.065
    1UNL     H5   28  -0.404   0.265  -0.166
    1UNL     H6   29  -0.527   0.298  -0.058
    1UNL     H7   30  -0.550   0.145  -0.166
    1UNL     H8   31  -0.446  -0.043  -0.192
    1UNL     H9   32  -0.286   0.018   0.185
    1UNL    H10   33  -0.339  -0.140   0.136
    1UNL    H11   34  -0.082  -0.154   0.181
    1UNL    H12   35   0.078  -0.284  -0.080
    1UNL    H13   36   0.108  -0.216   0.071
    1UNL    H14   37   0.289  -0.266  -0.088
    1UNL    H15   38   0.213  -0.011   0.183
    1UNL    H16   39   0.399  -0.070   0.333
    1UNL    H17   40   0.420   0.107   0.280
    1UNL    H18   41   0.562  -0.110   0.146
    1UNL    H19   42   0.352   0.198   0.091
    1UNL    H20   43   0.142   0.057  -0.033
    1UNL    H21   44   0.385   0.140  -0.172
    1UNL    H22   45   0.558   0.061   0.041
    1UNL    H23   46   0.501  -0.124  -0.130
    1UNL    H24   47   0.267  -0.070  -0.277
    1UNL    H25   48  -0.169  -0.153  -0.210
    1UNL    H26   49  -0.031  -0.034  -0.209
    1UNL    H27   50  -0.157   0.147  -0.086
    1UNL    H28   51  -0.239   0.106  -0.228
   0.00000   0.00000   0.00000   0.00000   0.00000   0.00000   0.00000   0.00000   0.00000
Generated with MDTraj, t= 48.0
 51
    1UNL     C1    1  -0.527   0.121   0.097
    1UNL     C2    2  -0.404   0.156   0.007
    1UNL     C3    3  -0.447   0.240  -0.113
    1UNL     C4    4  -0.324   0.019  -0.032
    1UNL     O1    5  -0.423  -0.065  -0.089
    1UNL     C5    6  -0.268  -0.058   0.099
    1UNL     C6    7  -0.140  -0.137   0.084
    1UNL     C7    8  -0.069  -0.143  -0.029
    1UNL     C8    9   0.068  -0.200  -0.042
    1UNL     O2   10   0.164  -0.115  -0.102
    1UNL     C9   11   0.295  -0.152  -0.063
    1UNL     O3   12   0.327  -0.151   0.077
    1UNL    C10   13   0.311  -0.026   0.146
    1UNL    C11   14   0.426  -0.004   0.249
    1UNL     O4   15   0.557  -0.016   0.188
    1UNL    C12   16   0.305   0.097   0.043
    1UNL     O5   17   0.172   0.119   0.017
    1UNL    C13   18   0.399   0.075  -0.081
    1UNL     O6   19   0.519   0.141  -0.071
    1UNL    C14   20   0.407  -0.064  -0.134
    1UNL     O7   21   0.387  -0.069  -0.271
    1UNL    C15   22  -0.125  -0.088  -0.157
    1UNL    C16   23  -0.214   0.032  -0.133
    1UNL     H1   24  -0.590   0.049   0.041
    1UNL     H2   25  -0.596   0.205   0.114
    1UNL     H3   26  -0.499   0.070   0.190
    1UNL     H4   27  -0.331   0.207   0.072
    1UNL     H5   28  -0.371   0.284  -0.164
    1UNL     H6   29  -0.508   0.335  -0.080
    1UNL     H7   30  -0.514   0.172  -0.178
    1UNL     H8   31  -0.458  -0.023  -0.175
    1UNL     H9   32  -0.252   0.019   0.181
    1UNL    H10   33  -0.355  -0.112   0.140
    1UNL    H11   34  -0.091  -0.175   0.164
    1UNL    H12   35   0.074  -0.296  -0.097
    1UNL    H13   36   0.123  -0.237   0.046
    1UNL    H14   37   0.310  -0.254  -0.097
    1UNL    H15   38   0.214  -0.027   0.199
    1UNL    H16   39   0.425  -0.082   0.328
    1UNL    H17   40   0.421   0.095   0.303
    1UNL    H18   41   0.556  -0.093   0.123
    1UNL    H19   42   0.345   0.190   0.098
    1UNL    H20   43   0.129   0.035  -0.013
    1UNL    H21   44   0.353   0.128  -0.167
    1UNL    H22   45   0.563   0.103   0.012
    1UNL    H23   46   0.510  -0.106  -0.128
    1UNL    H24   47   0.288  -0.075  -0.286
    1UNL    H25   48  -0.196  -0.166  -0.204
    1UNL    H26   49  -0.043  -0.069  -0.228
    1UNL    H27   50  -0.157   0.125  -0.109
    1UNL    H28   51  -0.255   0.063  -0.232
   0.00000   0.00000   0.00000   0.00000   0.00000   0.00000   0.00000   0.00000   0.00000
Generated with MDTraj, t= 49.0
 51
    1UNL     C1    1  -0.501   0.127   0.088
    1UNL     C2    2  -0.377   0.155   0.007
    1UNL     C3    3  -0.410   0.242  -0.115
    1UNL     C4    4  -0.307   0.015  -0.033
    1UNL     O1    5  -0.410  -0.069  -0.090
    1UNL     C5    6  -0.253  -0.058   0.096
    1UNL     C6    7  -0.121  -0.123   0.091
    1UNL     C7    8  -0.061  -0.151  -0.024
    1UNL     C8    9   0.070  -0.209  -0.043
    1UNL     O2   10   0.162  -0.129  -0.111
    1UNL     C9   11   0.291  -0.150  -0.058
    1UNL     O3   12   0.300  -0.145   0.089
    1UNL    C10   13   0.310  -0.022   0.155
    1UNL    C11   14   0.431  -0.001   0.232
    1UNL     O4   15   0.542  -0.043   0.166
    1UNL    C12   16   0.283   0.100   0.055
    1UNL     O5   17   0.152   0.120   0.024
    1UNL    C13   18   0.375   0.093  -0.073
    1UNL     O6   19   0.499   0.150  -0.066
    1UNL    C14   20   0.384  -0.049  -0.135
    1UNL     O7   21   0.363  -0.057  -0.270
    1UNL    C15   22  -0.118  -0.107  -0.148
    1UNL    C16   23  -0.196   0.026  -0.139
    1UNL     H1   24  -0.573   0.068   0.029
    1UNL     H2   25  -0.558   0.215   0.114
    1UNL     H3   26  -0.483   0.065   0.179
    1UNL     H4   27  -0.294   0.200   0.064
    1UNL     H5   28  -0.317   0.274  -0.162
    1UNL     H6   29  -0.466   0.346  -0.103
    1UNL     H7   30  -0.465   0.171  -0.180
    1UNL     H8   31  -0.446  -0.040  -0.177
    1UNL     H9   32  -0.252   0.014   0.183
    1UNL    H10   33  -0.327  -0.133   0.129
    1UNL    H11   34  -0.071  -0.141   0.192
    1UNL    H12   35   0.077  -0.304  -0.096
    1UNL    H13   36   0.119  -0.244   0.048
    1UNL    H14   37   0.316  -0.253  -0.077
    1UNL    H15   38   0.220  -0.017   0.221
    1UNL    H16   39   0.432  -0.064   0.318
    1UNL    H17   40   0.453   0.103   0.264
    1UNL    H18   41   0.510  -0.133   0.129
    1UNL    H19   42   0.315   0.198   0.107
    1UNL    H20   43   0.120   0.048  -0.042
    1UNL    H21   44   0.331   0.168  -0.141
    1UNL    H22   45   0.544   0.103   0.002
    1UNL    H23   46   0.494  -0.072  -0.123
    1UNL    H24   47   0.267  -0.059  -0.283
    1UNL    H25   48  -0.189  -0.185  -0.182
    1UNL    H26   49  -0.043  -0.091  -0.230
    1UNL    H27   50  -0.122   0.108  -0.128
    1UNL    H28   51  -0.243   0.052  -0.237
   0.00000   0.00000   0.00000   0.00000   0.00000   0.00000   0.00000   0.00000   0.00000
Generated with MDTraj, t= 50.0
 51
    1UNL     C1    1  -0.472   0.157   0.092
    1UNL     C2    2  -0.352   0.158  -0.004
    1UNL     C3    3  -0.394   0.232  -0.127
    1UNL     C4    4  -0.297   0.011  -0.032
    1UNL     O1    5  -0.403  -0.074  -0.087
    1UNL     C5    6  -0.245  -0.056   0.099
    1UNL     C6    7  -0.132  -0.149   0.093
    1UNL     C7    8  -0.062  -0.157  -0.019
    1UNL     C8    9   0.063  -0.230  -0.034
    1UNL     O2   10   0.154  -0.140  -0.104
    1UNL     C9   11   0.286  -0.146  -0.060
    1UNL     O3   12   0.295  -0.146   0.080
    1UNL    C10   13   0.305  -0.020   0.147
    1UNL    C11   14   0.437   0.014   0.219
    1UNL     O4   15   0.548  -0.047   0.146
    1UNL    C12   16   0.262   0.103   0.051
    1UNL     O5   17   0.139   0.105  -0.002
    1UNL    C13   18   0.369   0.105  -0.060
    1UNL     O6   19   0.493   0.154  -0.022
    1UNL    C14   20   0.370  -0.036  -0.130
    1UNL     O7   21   0.341  -0.033  -0.268
    1UNL    C15   22  -0.117  -0.120  -0.149
    1UNL    C16   23  -0.181   0.024  -0.135
    1UNL     H1   24  -0.561   0.115   0.044
    1UNL     H2   25  -0.500   0.259   0.116
    1UNL     H3   26  -0.451   0.098   0.187
    1UNL     H4   27  -0.263   0.206   0.041
    1UNL     H5   28  -0.298   0.262  -0.191
    1UNL     H6   29  -0.439   0.334  -0.106
    1UNL     H7   30  -0.462   0.166  -0.178
    1UNL     H8   31  -0.430  -0.050  -0.176
    1UNL     H9   32  -0.227   0.022   0.177
    1UNL    H10   33  -0.329  -0.113   0.145
    1UNL    H11   34  -0.101  -0.183   0.186
    1UNL    H12   35   0.054  -0.329  -0.079
    1UNL    H13   36   0.108  -0.260   0.060
    1UNL    H14   37   0.317  -0.244  -0.089
    1UNL    H15   38   0.220  -0.020   0.219
    1UNL    H16   39   0.449  -0.027   0.313
    1UNL    H17   40   0.452   0.120   0.227
    1UNL    H18   41   0.548  -0.136   0.177
    1UNL    H19   42   0.274   0.203   0.107
    1UNL    H20   43   0.127   0.030  -0.059
    1UNL    H21   44   0.335   0.177  -0.134
    1UNL    H22   45   0.530   0.073   0.028
    1UNL    H23   46   0.478  -0.067  -0.138
    1UNL    H24   47   0.245  -0.029  -0.293
    1UNL    H25   48  -0.193  -0.185  -0.191
    1UNL    H26   49  -0.037  -0.117  -0.230
    1UNL    H27   50  -0.115   0.108  -0.100
    1UNL    H28   51  -0.210   0.061  -0.237
   0.00000   0.00000   0.00000   0.00000   0.00000   0.00000   0.00000   0.00000   0.00000
Generated with MDTraj, t= 51.0
 51
    1UNL     C1    1  -0.451   0.158   0.105
    1UNL     C2    2  -0.339   0.167  -0.007
    1UNL     C3    3  -0.388   0.242  -0.124
    1UNL     C4    4  -0.297   0.015  -0.038
    1UNL     O1    5  -0.403  -0.059  -0.088
    1UNL     C5    6  -0.240  -0.057   0.096
    1UNL     C6    7  -0.112  -0.131   0.093
    1UNL     C7    8  -0.064  -0.172  -0.022
    1UNL     C8    9   0.078  -0.235  -0.031
    1UNL     O2   10   0.157  -0.146  -0.115
    1UNL     C9   11   0.296  -0.148  -0.068
    1UNL     O3   12   0.320  -0.149   0.071
    1UNL    C10   13   0.296  -0.031   0.147
    1UNL    C11   14   0.405  -0.010   0.253
    1UNL     O4   15   0.538  -0.026   0.189
    1UNL    C12   16   0.267   0.097   0.054
    1UNL     O5   17   0.137   0.114   0.024
    1UNL    C13   18   0.355   0.105  -0.076
    1UNL     O6   19   0.477   0.172  -0.052
    1UNL    C14   20   0.375  -0.035  -0.145
    1UNL     O7   21   0.326  -0.039  -0.278
    1UNL    C15   22  -0.128  -0.134  -0.154
    1UNL    C16   23  -0.189   0.009  -0.147
    1UNL     H1   24  -0.524   0.085   0.072
    1UNL     H2   25  -0.505   0.250   0.107
    1UNL     H3   26  -0.408   0.128   0.206
    1UNL     H4   27  -0.247   0.211   0.034
    1UNL     H5   28  -0.305   0.254  -0.206
    1UNL     H6   29  -0.410   0.348  -0.100
    1UNL     H7   30  -0.480   0.195  -0.159
    1UNL     H8   31  -0.422  -0.024  -0.174
    1UNL     H9   32  -0.241   0.021   0.173
    1UNL    H10   33  -0.320  -0.123   0.139
    1UNL    H11   34  -0.056  -0.144   0.187
    1UNL    H12   35   0.067  -0.333  -0.077
    1UNL    H13   36   0.136  -0.267   0.057
    1UNL    H14   37   0.336  -0.246  -0.094
    1UNL    H15   38   0.201  -0.056   0.196
    1UNL    H16   39   0.399  -0.075   0.333
    1UNL    H17   40   0.399   0.092   0.283
    1UNL    H18   41   0.548  -0.124   0.166
    1UNL    H19   42   0.295   0.192   0.112
    1UNL    H20   43   0.119   0.037  -0.037
    1UNL    H21   44   0.300   0.174  -0.140
    1UNL    H22   45   0.524   0.111   0.006
    1UNL    H23   46   0.483  -0.061  -0.133
    1UNL    H24   47   0.232  -0.068  -0.277
    1UNL    H25   48  -0.204  -0.206  -0.175
    1UNL    H26   49  -0.059  -0.149  -0.245
    1UNL    H27   50  -0.114   0.089  -0.125
    1UNL    H28   51  -0.235   0.050  -0.240
   0.00000   0.00000   0.00000   0.00000   0.00000   0.00000   0.00000   0.00000   0.00000
Generated with MDTraj, t= 52.0
 51
    1UNL     C1    1  -0.444   0.182   0.102
    1UNL     C2    2  -0.337   0.163  -0.006
    1UNL     C3    3  -0.368   0.236  -0.133
    1UNL     C4    4  -0.299   0.014  -0.028
    1UNL     O1    5  -0.419  -0.060  -0.054
    1UNL     C5    6  -0.239  -0.054   0.107
    1UNL     C6    7  -0.115  -0.140   0.087
    1UNL     C7    8  -0.064  -0.174  -0.030
    1UNL     C8    9   0.079  -0.234  -0.053
    1UNL     O2   10   0.158  -0.136  -0.113
    1UNL     C9   11   0.297  -0.155  -0.079
    1UNL     O3   12   0.336  -0.156   0.057
    1UNL    C10   13   0.287  -0.042   0.137
    1UNL    C11   14   0.384  -0.019   0.250
    1UNL     O4   15   0.513   0.028   0.211
    1UNL    C12   16   0.269   0.094   0.052
    1UNL     O5   17   0.136   0.106   0.024
    1UNL    C13   18   0.365   0.100  -0.073
    1UNL     O6   19   0.493   0.152  -0.040
    1UNL    C14   20   0.380  -0.039  -0.148
    1UNL     O7   21   0.341  -0.024  -0.287
    1UNL    C15   22  -0.140  -0.140  -0.155
    1UNL    C16   23  -0.200  -0.009  -0.146
    1UNL     H1   24  -0.537   0.145   0.059
    1UNL     H2   25  -0.473   0.286   0.123
    1UNL     H3   26  -0.436   0.129   0.198
    1UNL     H4   27  -0.241   0.202   0.033
    1UNL     H5   28  -0.284   0.232  -0.190
    1UNL     H6   29  -0.389   0.345  -0.126
    1UNL     H7   30  -0.453   0.186  -0.189
    1UNL     H8   31  -0.454  -0.030  -0.140
    1UNL     H9   32  -0.221   0.018   0.187
    1UNL    H10   33  -0.318  -0.114   0.160
    1UNL    H11   34  -0.059  -0.155   0.180
    1UNL    H12   35   0.081  -0.321  -0.120
    1UNL    H13   36   0.112  -0.265   0.047
    1UNL    H14   37   0.330  -0.250  -0.125
    1UNL    H15   38   0.194  -0.078   0.182
    1UNL    H16   39   0.399  -0.112   0.293
    1UNL    H17   40   0.335   0.050   0.315
    1UNL    H18   41   0.555  -0.047   0.159
    1UNL    H19   42   0.292   0.181   0.121
    1UNL    H20   43   0.106   0.021  -0.025
    1UNL    H21   44   0.330   0.161  -0.157
    1UNL    H22   45   0.532   0.097   0.030
    1UNL    H23   46   0.485  -0.067  -0.157
    1UNL    H24   47   0.248  -0.049  -0.302
    1UNL    H25   48  -0.209  -0.212  -0.188
    1UNL    H26   49  -0.067  -0.140  -0.245
    1UNL    H27   50  -0.117   0.063  -0.122
    1UNL    H28   51  -0.233   0.037  -0.243
   0.00000   0.00000   0.00000   0.00000   0.00000   0.00000   0.00000   0.00000   0.00000
Generated with MDTraj, t= 53.0
 51
    1UNL     C1    1  -0.428   0.169   0.106
    1UNL     C2    2  -0.321   0.153  -0.001
    1UNL     C3    3  -0.363   0.234  -0.122
    1UNL     C4    4  -0.292   0.010  -0.030
    1UNL     O1    5  -0.420  -0.062  -0.042
    1UNL     C5    6  -0.225  -0.045   0.100
    1UNL     C6    7  -0.091  -0.114   0.082
    1UNL     C7    8  -0.060  -0.180  -0.027
    1UNL     C8    9   0.084  -0.226  -0.054
    1UNL     O2   10   0.161  -0.128  -0.110
    1UNL     C9   11   0.299  -0.147  -0.081
    1UNL     O3   12   0.325  -0.142   0.060
    1UNL    C10   13   0.275  -0.026   0.129
    1UNL    C11   14   0.358  -0.010   0.258
    1UNL     O4   15   0.491  -0.017   0.222
    1UNL    C12   16   0.268   0.104   0.038
    1UNL     O5   17   0.131   0.112  -0.001
    1UNL    C13   18   0.373   0.101  -0.077
    1UNL     O6   19   0.503   0.138  -0.035
    1UNL    C14   20   0.378  -0.031  -0.153
    1UNL     O7   21   0.335  -0.017  -0.284
    1UNL    C15   22  -0.145  -0.159  -0.150
    1UNL    C16   23  -0.201  -0.017  -0.151
    1UNL     H1   24  -0.524   0.134   0.062
    1UNL     H2   25  -0.453   0.275   0.121
    1UNL     H3   26  -0.421   0.121   0.201
    1UNL     H4   27  -0.224   0.192   0.036
    1UNL     H5   28  -0.292   0.237  -0.194
    1UNL     H6   29  -0.381   0.339  -0.097
    1UNL     H7   30  -0.457   0.188  -0.168
    1UNL     H8   31  -0.473  -0.045  -0.127
    1UNL     H9   32  -0.213   0.034   0.172
    1UNL    H10   33  -0.285  -0.117   0.161
    1UNL    H11   34  -0.026  -0.117   0.163
    1UNL    H12   35   0.070  -0.308  -0.128
    1UNL    H13   36   0.136  -0.259   0.039
    1UNL    H14   37   0.330  -0.250  -0.114
    1UNL    H15   38   0.176  -0.054   0.161
    1UNL    H16   39   0.327  -0.089   0.319
    1UNL    H17   40   0.336   0.090   0.294
    1UNL    H18   41   0.507  -0.079   0.152
    1UNL    H19   42   0.285   0.194   0.102
    1UNL    H20   43   0.104   0.034  -0.048
    1UNL    H21   44   0.355   0.174  -0.159
    1UNL    H22   45   0.516   0.110   0.061
    1UNL    H23   46   0.482  -0.058  -0.141
    1UNL    H24   47   0.243  -0.056  -0.289
    1UNL    H25   48  -0.227  -0.226  -0.140
    1UNL    H26   49  -0.106  -0.195  -0.251
    1UNL    H27   50  -0.125   0.062  -0.165
    1UNL    H28   51  -0.265   0.004  -0.241
   0.00000   0.00000   0.00000   0.00000   0.00000   0.00000   0.00000   0.00000   0.00000
Generated with MDTraj, t= 54.0
 51
    1UNL     C1    1  -0.412   0.184   0.117
    1UNL     C2    2  -0.322   0.153  -0.008
    1UNL     C3    3  -0.378   0.211  -0.134
    1UNL     C4    4  -0.293   0.001  -0.015
    1UNL     O1    5  -0.417  -0.064  -0.037
    1UNL     C5    6  -0.217  -0.056   0.119
    1UNL     C6    7  -0.099  -0.138   0.083
    1UNL     C7    8  -0.062  -0.184  -0.032
    1UNL     C8    9   0.078  -0.240  -0.052
    1UNL     O2   10   0.156  -0.147  -0.127
    1UNL     C9   11   0.289  -0.134  -0.081
    1UNL     O3   12   0.296  -0.126   0.059
    1UNL    C10   13   0.268   0.001   0.122
    1UNL    C11   14   0.357   0.011   0.258
    1UNL     O4   15   0.479  -0.059   0.236
    1UNL    C12   16   0.274   0.116   0.025
    1UNL     O5   17   0.149   0.118  -0.048
    1UNL    C13   18   0.395   0.115  -0.071
    1UNL     O6   19   0.522   0.130  -0.012
    1UNL    C14   20   0.375  -0.018  -0.150
    1UNL     O7   21   0.328   0.005  -0.283
    1UNL    C15   22  -0.140  -0.155  -0.151
    1UNL    C16   23  -0.200  -0.012  -0.136
    1UNL     H1   24  -0.508   0.131   0.112
    1UNL     H2   25  -0.436   0.292   0.104
    1UNL     H3   26  -0.357   0.171   0.206
    1UNL     H4   27  -0.225   0.203   0.012
    1UNL     H5   28  -0.313   0.211  -0.224
    1UNL     H6   29  -0.398   0.311  -0.113
    1UNL     H7   30  -0.470   0.159  -0.157
    1UNL     H8   31  -0.452  -0.061  -0.134
    1UNL     H9   32  -0.189   0.012   0.199
    1UNL    H10   33  -0.290  -0.115   0.177
    1UNL    H11   34  -0.031  -0.170   0.170
    1UNL    H12   35   0.073  -0.341  -0.099
    1UNL    H13   36   0.109  -0.246   0.056
    1UNL    H14   37   0.338  -0.229  -0.118
    1UNL    H15   38   0.168  -0.021   0.155
    1UNL    H16   39   0.302  -0.040   0.333
    1UNL    H17   40   0.365   0.121   0.274
    1UNL    H18   41   0.477  -0.147   0.182
    1UNL    H19   42   0.278   0.204   0.088
    1UNL    H20   43   0.129   0.028  -0.081
    1UNL    H21   44   0.387   0.195  -0.149
    1UNL    H22   45   0.528   0.072   0.063
    1UNL    H23   46   0.476  -0.053  -0.167
    1UNL    H24   47   0.240  -0.031  -0.303
    1UNL    H25   48  -0.220  -0.227  -0.160
    1UNL    H26   49  -0.080  -0.170  -0.244
    1UNL    H27   50  -0.130   0.075  -0.139
    1UNL    H28   51  -0.262   0.004  -0.227
   0.00000   0.00000   0.00000   0.00000   0.00000   0.00000   0.00000   0.00000   0.00000
Generated with MDTraj, t= 55.0
 51
    1UNL     C1    1  -0.411   0.158   0.133
    1UNL     C2    2  -0.328   0.157   0.005
    1UNL     C3    3  -0.399   0.216  -0.115
    1UNL     C4    4  -0.286   0.006  -0.022
    1UNL     O1    5  -0.405  -0.075  -0.036
    1UNL     C5    6  -0.207  -0.042   0.101
    1UNL     C6    7  -0.085  -0.115   0.074
    1UNL     C7    8  -0.061  -0.178  -0.036
    1UNL     C8    9   0.084  -0.240  -0.064
    1UNL     O2   10   0.154  -0.128  -0.122
    1UNL     C9   11   0.290  -0.143  -0.083
    1UNL     O3   12   0.312  -0.126   0.063
    1UNL    C10   13   0.262  -0.005   0.117
    1UNL    C11   14   0.336   0.017   0.254
    1UNL     O4   15   0.469  -0.028   0.249
    1UNL    C12   16   0.278   0.116   0.023
    1UNL     O5   17   0.159   0.148  -0.046
    1UNL    C13   18   0.394   0.098  -0.076
    1UNL     O6   19   0.515   0.095  -0.004
    1UNL    C14   20   0.379  -0.038  -0.158
    1UNL     O7   21   0.323  -0.017  -0.283
    1UNL    C15   22  -0.144  -0.155  -0.158
    1UNL    C16   23  -0.199  -0.010  -0.148
    1UNL     H1   24  -0.510   0.114   0.116
    1UNL     H2   25  -0.432   0.262   0.160
    1UNL     H3   26  -0.361   0.110   0.214
    1UNL     H4   27  -0.237   0.219   0.022
    1UNL     H5   28  -0.335   0.191  -0.207
    1UNL     H6   29  -0.405   0.319  -0.113
    1UNL     H7   30  -0.486   0.168  -0.133
    1UNL     H8   31  -0.446  -0.072  -0.128
    1UNL     H9   32  -0.188   0.038   0.172
    1UNL    H10   33  -0.272  -0.103   0.163
    1UNL    H11   34  -0.014  -0.126   0.147
    1UNL    H12   35   0.087  -0.324  -0.137
    1UNL    H13   36   0.126  -0.276   0.033
    1UNL    H14   37   0.324  -0.246  -0.116
    1UNL    H15   38   0.158  -0.020   0.135
    1UNL    H16   39   0.273  -0.045   0.320
    1UNL    H17   40   0.329   0.130   0.274
    1UNL    H18   41   0.477  -0.122   0.259
    1UNL    H19   42   0.299   0.201   0.084
    1UNL    H20   43   0.121   0.064  -0.088
    1UNL    H21   44   0.402   0.189  -0.141
    1UNL    H22   45   0.497   0.028   0.072
    1UNL    H23   46   0.478  -0.084  -0.163
    1UNL    H24   47   0.223  -0.012  -0.286
    1UNL    H25   48  -0.223  -0.231  -0.155
    1UNL    H26   49  -0.087  -0.170  -0.249
    1UNL    H27   50  -0.112   0.059  -0.152
    1UNL    H28   51  -0.260   0.012  -0.238
   0.00000   0.00000   0.00000   0.00000   0.00000   0.00000   0.00000   0.00000   0.00000
Generated with MDTraj, t= 56.0
 51
    1UNL     C1    1  -0.451   0.167   0.136
    1UNL     C2    2  -0.350   0.153   0.016
    1UNL     C3    3  -0.416   0.215  -0.109
    1UNL     C4    4  -0.297   0.006  -0.012
    1UNL     O1    5  -0.415  -0.075  -0.016
    1UNL     C5    6  -0.213  -0.045   0.105
    1UNL     C6    7  -0.097  -0.132   0.076
    1UNL     C7    8  -0.060  -0.169  -0.043
    1UNL     C8    9   0.075  -0.233  -0.075
    1UNL     O2   10   0.172  -0.136  -0.126
    1UNL     C9   11   0.307  -0.155  -0.084
    1UNL     O3   12   0.321  -0.145   0.061
    1UNL    C10   13   0.264  -0.025   0.106
    1UNL    C11   14   0.315  -0.001   0.250
    1UNL     O4   15   0.452   0.014   0.262
    1UNL    C12   16   0.292   0.115   0.021
    1UNL     O5   17   0.179   0.154  -0.046
    1UNL    C13   18   0.407   0.086  -0.082
    1UNL     O6   19   0.534   0.111  -0.017
    1UNL    C14   20   0.396  -0.054  -0.157
    1UNL     O7   21   0.353  -0.031  -0.290
    1UNL    C15   22  -0.138  -0.127  -0.170
    1UNL    C16   23  -0.211   0.004  -0.142
    1UNL     H1   24  -0.540   0.107   0.119
    1UNL     H2   25  -0.497   0.263   0.155
    1UNL     H3   26  -0.417   0.134   0.234
    1UNL     H4   27  -0.260   0.214   0.038
    1UNL     H5   28  -0.342   0.217  -0.193
    1UNL     H6   29  -0.446   0.315  -0.095
    1UNL     H7   30  -0.489   0.154  -0.149
    1UNL     H8   31  -0.451  -0.076  -0.108
    1UNL     H9   32  -0.175   0.040   0.162
    1UNL    H10   33  -0.273  -0.089   0.180
    1UNL    H11   34  -0.022  -0.152   0.158
    1UNL    H12   35   0.059  -0.315  -0.146
    1UNL    H13   36   0.124  -0.268   0.018
    1UNL    H14   37   0.335  -0.258  -0.119
    1UNL    H15   38   0.158  -0.029   0.109
    1UNL    H16   39   0.273  -0.079   0.323
    1UNL    H17   40   0.278   0.107   0.276
    1UNL    H18   41   0.495  -0.078   0.257
    1UNL    H19   42   0.322   0.192   0.086
    1UNL    H20   43   0.148   0.075  -0.090
    1UNL    H21   44   0.399   0.160  -0.164
    1UNL    H22   45   0.512   0.091   0.073
    1UNL    H23   46   0.493  -0.110  -0.160
    1UNL    H24   47   0.259  -0.009  -0.305
    1UNL    H25   48  -0.220  -0.201  -0.190
    1UNL    H26   49  -0.077  -0.124  -0.255
    1UNL    H27   50  -0.124   0.069  -0.112
    1UNL    H28   51  -0.248   0.044  -0.239
   0.00000   0.00000   0.00000   0.00000   0.00000   0.00000   0.00000   0.00000   0.00000
Generated with MDTraj, t= 57.0
 51
    1UNL     C1    1  -0.468   0.129   0.140
    1UNL     C2    2  -0.368   0.150   0.025
    1UNL     C3    3  -0.438   0.219  -0.085
    1UNL     C4    4  -0.309   0.014  -0.013
    1UNL     O1    5  -0.408  -0.088  -0.047
    1UNL     C5    6  -0.222  -0.041   0.111
    1UNL     C6    7  -0.088  -0.106   0.079
    1UNL     C7    8  -0.050  -0.142  -0.039
    1UNL     C8    9   0.078  -0.209  -0.056
    1UNL     O2   10   0.175  -0.142  -0.135
    1UNL     C9   11   0.307  -0.151  -0.082
    1UNL     O3   12   0.308  -0.137   0.062
    1UNL    C10   13   0.266  -0.010   0.108
    1UNL    C11   14   0.318   0.023   0.253
    1UNL     O4   15   0.460  -0.002   0.263
    1UNL    C12   16   0.284   0.104   0.003
    1UNL     O5   17   0.172   0.124  -0.074
    1UNL    C13   18   0.414   0.079  -0.086
    1UNL     O6   19   0.535   0.093  -0.013
    1UNL    C14   20   0.414  -0.066  -0.155
    1UNL     O7   21   0.385  -0.048  -0.295
    1UNL    C15   22  -0.136  -0.105  -0.162
    1UNL    C16   23  -0.212   0.029  -0.130
    1UNL     H1   24  -0.544   0.056   0.116
    1UNL     H2   25  -0.523   0.216   0.165
    1UNL     H3   26  -0.415   0.096   0.232
    1UNL     H4   27  -0.286   0.216   0.061
    1UNL     H5   28  -0.378   0.243  -0.162
    1UNL     H6   29  -0.480   0.308  -0.041
    1UNL     H7   30  -0.517   0.157  -0.132
    1UNL     H8   31  -0.445  -0.065  -0.132
    1UNL     H9   32  -0.203   0.042   0.180
    1UNL    H10   33  -0.275  -0.101   0.179
    1UNL    H11   34  -0.023  -0.114   0.164
    1UNL    H12   35   0.069  -0.298  -0.117
    1UNL    H13   36   0.127  -0.234   0.038
    1UNL    H14   37   0.340  -0.253  -0.107
    1UNL    H15   38   0.159  -0.007   0.107
    1UNL    H16   39   0.284  -0.054   0.330
    1UNL    H17   40   0.305   0.132   0.296
    1UNL    H18   41   0.490  -0.092   0.227
    1UNL    H19   42   0.301   0.191   0.058
    1UNL    H20   43   0.144   0.034  -0.111
    1UNL    H21   44   0.412   0.155  -0.165
    1UNL    H22   45   0.513   0.089   0.084
    1UNL    H23   46   0.513  -0.121  -0.151
    1UNL    H24   47   0.297  -0.007  -0.313
    1UNL    H25   48  -0.206  -0.187  -0.197
    1UNL    H26   49  -0.074  -0.090  -0.245
    1UNL    H27   50  -0.133   0.106  -0.113
    1UNL    H28   51  -0.270   0.067  -0.216
   0.00000   0.00000   0.00000   0.00000   0.00000   0.00000   0.00000   0.00000   0.00000
Generated with MDTraj, t= 58.0
 51
    1UNL     C1    1  -0.484   0.099   0.148
    1UNL     C2    2  -0.388   0.143   0.035
    1UNL     C3    3  -0.463   0.207  -0.089
    1UNL     C4    4  -0.302   0.016  -0.006
    1UNL     O1    5  -0.382  -0.091  -0.064
    1UNL     C5    6  -0.219  -0.043   0.113
    1UNL     C6    7  -0.107  -0.138   0.073
    1UNL     C7    8  -0.052  -0.131  -0.043
    1UNL     C8    9   0.072  -0.213  -0.054
    1UNL     O2   10   0.166  -0.139  -0.128
    1UNL     C9   11   0.295  -0.148  -0.066
    1UNL     O3   12   0.283  -0.120   0.074
    1UNL    C10   13   0.265   0.021   0.109
    1UNL    C11   14   0.342   0.046   0.235
    1UNL     O4   15   0.458  -0.033   0.239
    1UNL    C12   16   0.293   0.114  -0.010
    1UNL     O5   17   0.186   0.130  -0.099
    1UNL    C13   18   0.420   0.066  -0.087
    1UNL     O6   19   0.538   0.087  -0.012
    1UNL    C14   20   0.407  -0.075  -0.143
    1UNL     O7   21   0.381  -0.068  -0.279
    1UNL    C15   22  -0.105  -0.060  -0.157
    1UNL    C16   23  -0.194   0.057  -0.107
    1UNL     H1   24  -0.551   0.026   0.106
    1UNL     H2   25  -0.544   0.184   0.168
    1UNL     H3   26  -0.429   0.068   0.239
    1UNL     H4   27  -0.322   0.221   0.078
    1UNL     H5   28  -0.395   0.234  -0.166
    1UNL     H6   29  -0.515   0.294  -0.058
    1UNL     H7   30  -0.532   0.141  -0.145
    1UNL     H8   31  -0.410  -0.068  -0.152
    1UNL     H9   32  -0.179   0.035   0.177
    1UNL    H10   33  -0.290  -0.086   0.176
    1UNL    H11   34  -0.060  -0.192   0.153
    1UNL    H12   35   0.073  -0.311  -0.097
    1UNL    H13   36   0.131  -0.223   0.037
    1UNL    H14   37   0.332  -0.250  -0.074
    1UNL    H15   38   0.157   0.035   0.111
    1UNL    H16   39   0.285   0.019   0.328
    1UNL    H17   40   0.394   0.149   0.254
    1UNL    H18   41   0.438  -0.125   0.217
    1UNL    H19   42   0.320   0.210   0.024
    1UNL    H20   43   0.150   0.039  -0.123
    1UNL    H21   44   0.423   0.135  -0.172
    1UNL    H22   45   0.528   0.064   0.082
    1UNL    H23   46   0.506  -0.124  -0.118
    1UNL    H24   47   0.287  -0.038  -0.284
    1UNL    H25   48  -0.163  -0.137  -0.215
    1UNL    H26   49  -0.031  -0.032  -0.226
    1UNL    H27   50  -0.135   0.140  -0.060
    1UNL    H28   51  -0.237   0.106  -0.196
   0.00000   0.00000   0.00000   0.00000   0.00000   0.00000   0.00000   0.00000   0.00000
Generated with MDTraj, t= 59.0
 51
    1UNL     C1    1  -0.514   0.068   0.136
    1UNL     C2    2  -0.410   0.131   0.042
    1UNL     C3    3  -0.487   0.190  -0.076
    1UNL     C4    4  -0.297   0.022  -0.004
    1UNL     O1    5  -0.374  -0.077  -0.072
    1UNL     C5    6  -0.229  -0.046   0.115
    1UNL     C6    7  -0.111  -0.130   0.072
    1UNL     C7    8  -0.055  -0.125  -0.046
    1UNL     C8    9   0.062  -0.212  -0.075
    1UNL     O2   10   0.177  -0.149  -0.140
    1UNL     C9   11   0.290  -0.157  -0.057
    1UNL     O3   12   0.275  -0.119   0.081
    1UNL    C10   13   0.270   0.029   0.108
    1UNL    C11   14   0.341   0.050   0.235
    1UNL     O4   15   0.466  -0.010   0.240
    1UNL    C12   16   0.310   0.123  -0.008
    1UNL     O5   17   0.205   0.145  -0.098
    1UNL    C13   18   0.431   0.058  -0.094
    1UNL     O6   19   0.550   0.080  -0.031
    1UNL    C14   20   0.408  -0.094  -0.131
    1UNL     O7   21   0.380  -0.097  -0.273
    1UNL    C15   22  -0.100  -0.028  -0.150
    1UNL    C16   23  -0.178   0.084  -0.089
    1UNL     H1   24  -0.571  -0.013   0.093
    1UNL     H2   25  -0.588   0.140   0.164
    1UNL     H3   26  -0.465   0.036   0.229
    1UNL     H4   27  -0.358   0.214   0.093
    1UNL     H5   28  -0.414   0.232  -0.161
    1UNL     H6   29  -0.552   0.267  -0.044
    1UNL     H7   30  -0.544   0.117  -0.129
    1UNL     H8   31  -0.404  -0.058  -0.163
    1UNL     H9   32  -0.194   0.035   0.176
    1UNL    H10   33  -0.299  -0.097   0.174
    1UNL    H11   34  -0.072  -0.189   0.156
    1UNL    H12   35   0.050  -0.287  -0.151
    1UNL    H13   36   0.107  -0.263   0.011
    1UNL    H14   37   0.311  -0.262  -0.061
    1UNL    H15   38   0.165   0.061   0.128
    1UNL    H16   39   0.281   0.012   0.317
    1UNL    H17   40   0.358   0.158   0.264
    1UNL    H18   41   0.445  -0.105   0.220
    1UNL    H19   42   0.340   0.208   0.049
    1UNL    H20   43   0.179   0.056  -0.120
    1UNL    H21   44   0.419   0.103  -0.191
    1UNL    H22   45   0.555   0.052   0.064
    1UNL    H23   46   0.507  -0.147  -0.120
    1UNL    H24   47   0.290  -0.130  -0.294
    1UNL    H25   48  -0.171  -0.075  -0.220
    1UNL    H26   49  -0.020  -0.002  -0.215
    1UNL    H27   50  -0.113   0.148  -0.025
    1UNL    H28   51  -0.217   0.152  -0.167
   0.00000   0.00000   0.00000   0.00000   0.00000   0.00000   0.00000   0.00000   0.00000
Generated with MDTraj, t= 60.0
 51
    1UNL     C1    1  -0.528   0.050   0.132
    1UNL     C2    2  -0.424   0.122   0.049
    1UNL     C3    3  -0.494   0.204  -0.056
    1UNL     C4    4  -0.316   0.020  -0.005
    1UNL     O1    5  -0.394  -0.086  -0.076
    1UNL     C5    6  -0.247  -0.048   0.117
    1UNL     C6    7  -0.124  -0.118   0.076
    1UNL     C7    8  -0.050  -0.105  -0.034
    1UNL     C8    9   0.061  -0.196  -0.070
    1UNL     O2   10   0.176  -0.130  -0.131
    1UNL     C9   11   0.299  -0.162  -0.064
    1UNL     O3   12   0.296  -0.133   0.079
    1UNL    C10   13   0.272   0.016   0.097
    1UNL    C11   14   0.334   0.053   0.234
    1UNL     O4   15   0.474   0.011   0.245
    1UNL    C12   16   0.315   0.112  -0.016
    1UNL     O5   17   0.213   0.154  -0.113
    1UNL    C13   18   0.441   0.050  -0.095
    1UNL     O6   19   0.558   0.065  -0.020
    1UNL    C14   20   0.423  -0.102  -0.139
    1UNL     O7   21   0.424  -0.123  -0.281
    1UNL    C15   22  -0.094  -0.005  -0.140
    1UNL    C16   23  -0.210   0.087  -0.099
    1UNL     H1   24  -0.580  -0.034   0.088
    1UNL     H2   25  -0.610   0.112   0.169
    1UNL     H3   26  -0.486   0.016   0.224
    1UNL     H4   27  -0.361   0.188   0.113
    1UNL     H5   28  -0.424   0.276  -0.110
    1UNL     H6   29  -0.582   0.255  -0.007
    1UNL     H7   30  -0.533   0.139  -0.133
    1UNL     H8   31  -0.423  -0.051  -0.166
    1UNL     H9   32  -0.224   0.020   0.195
    1UNL    H10   33  -0.316  -0.116   0.162
    1UNL    H11   34  -0.089  -0.180   0.150
    1UNL    H12   35   0.024  -0.272  -0.139
    1UNL    H13   36   0.116  -0.238   0.018
    1UNL    H14   37   0.299  -0.270  -0.077
    1UNL    H15   38   0.157   0.019   0.085
    1UNL    H16   39   0.270   0.026   0.312
    1UNL    H17   40   0.337   0.164   0.234
    1UNL    H18   41   0.467  -0.083   0.223
    1UNL    H19   42   0.341   0.205   0.034
    1UNL    H20   43   0.173   0.069  -0.144
    1UNL    H21   44   0.451   0.111  -0.183
    1UNL    H22   45   0.546   0.025   0.071
    1UNL    H23   46   0.515  -0.138  -0.089
    1UNL    H24   47   0.332  -0.115  -0.316
    1UNL    H25   48  -0.119  -0.067  -0.224
    1UNL    H26   49  -0.017   0.058  -0.184
    1UNL    H27   50  -0.164   0.175  -0.049
    1UNL    H28   51  -0.254   0.135  -0.188
   0.00000   0.00000   0.00000   0.00000   0.00000   0.00000   0.00000   0.00000   0.00000
Generated with MDTraj, t= 61.0
 51
    1UNL     C1    1  -0.533   0.041   0.132
    1UNL     C2    2  -0.431   0.121   0.053
    1UNL     C3    3  -0.494   0.210  -0.061
    1UNL     C4    4  -0.327   0.017  -0.002
    1UNL     O1    5  -0.388  -0.090  -0.077
    1UNL     C5    6  -0.255  -0.054   0.113
    1UNL     C6    7  -0.123  -0.116   0.084
    1UNL     C7    8  -0.056  -0.104  -0.032
    1UNL     C8    9   0.064  -0.197  -0.070
    1UNL     O2   10   0.166  -0.109  -0.115
    1UNL     C9   11   0.295  -0.153  -0.063
    1UNL     O3   12   0.307  -0.125   0.075
    1UNL    C10   13   0.279   0.022   0.089
    1UNL    C11   14   0.328   0.057   0.226
    1UNL     O4   15   0.459   0.012   0.252
    1UNL    C12   16   0.336   0.110  -0.021
    1UNL     O5   17   0.244   0.145  -0.122
    1UNL    C13   18   0.458   0.045  -0.096
    1UNL     O6   19   0.576   0.048  -0.022
    1UNL    C14   20   0.422  -0.104  -0.135
    1UNL     O7   21   0.410  -0.106  -0.279
    1UNL    C15   22  -0.113  -0.018  -0.144
    1UNL    C16   23  -0.224   0.087  -0.092
    1UNL     H1   24  -0.585  -0.027   0.064
    1UNL     H2   25  -0.610   0.111   0.167
    1UNL     H3   26  -0.493  -0.007   0.216
    1UNL     H4   27  -0.374   0.179   0.128
    1UNL     H5   28  -0.422   0.275  -0.101
    1UNL     H6   29  -0.588   0.264  -0.014
    1UNL     H7   30  -0.534   0.151  -0.149
    1UNL     H8   31  -0.419  -0.045  -0.164
    1UNL     H9   32  -0.241   0.018   0.187
    1UNL    H10   33  -0.320  -0.124   0.162
    1UNL    H11   34  -0.074  -0.192   0.151
    1UNL    H12   35   0.037  -0.267  -0.152
    1UNL    H13   36   0.092  -0.248   0.027
    1UNL    H14   37   0.283  -0.261  -0.078
    1UNL    H15   38   0.164   0.026   0.085
    1UNL    H16   39   0.259   0.022   0.295
    1UNL    H17   40   0.339   0.164   0.235
    1UNL    H18   41   0.463  -0.090   0.237
    1UNL    H19   42   0.374   0.202   0.028
    1UNL    H20   43   0.198   0.056  -0.136
    1UNL    H21   44   0.478   0.086  -0.195
    1UNL    H22   45   0.543   0.021   0.066
    1UNL    H23   46   0.507  -0.166  -0.113
    1UNL    H24   47   0.326  -0.062  -0.307
    1UNL    H25   48  -0.166  -0.078  -0.210
    1UNL    H26   49  -0.028   0.019  -0.202
    1UNL    H27   50  -0.171   0.171  -0.042
    1UNL    H28   51  -0.273   0.133  -0.180
   0.00000   0.00000   0.00000   0.00000   0.00000   0.00000   0.00000   0.00000   0.00000
Generated with MDTraj, t= 62.0
 51
    1UNL     C1    1  -0.529   0.051   0.128
    1UNL     C2    2  -0.421   0.117   0.038
    1UNL     C3    3  -0.489   0.198  -0.071
    1UNL     C4    4  -0.313   0.008  -0.002
    1UNL     O1    5  -0.385  -0.092  -0.079
    1UNL     C5    6  -0.246  -0.059   0.123
    1UNL     C6    7  -0.124  -0.132   0.085
    1UNL     C7    8  -0.067  -0.118  -0.035
    1UNL     C8    9   0.059  -0.198  -0.063
    1UNL     O2   10   0.162  -0.127  -0.125
    1UNL     C9   11   0.290  -0.143  -0.058
    1UNL     O3   12   0.294  -0.100   0.080
    1UNL    C10   13   0.289   0.043   0.092
    1UNL    C11   14   0.343   0.075   0.232
    1UNL     O4   15   0.453   0.003   0.265
    1UNL    C12   16   0.354   0.119  -0.021
    1UNL     O5   17   0.254   0.155  -0.116
    1UNL    C13   18   0.462   0.038  -0.096
    1UNL     O6   19   0.581   0.008  -0.019
    1UNL    C14   20   0.404  -0.094  -0.150
    1UNL     O7   21   0.361  -0.071  -0.286
    1UNL    C15   22  -0.113  -0.027  -0.145
    1UNL    C16   23  -0.210   0.078  -0.095
    1UNL     H1   24  -0.591  -0.016   0.068
    1UNL     H2   25  -0.594   0.133   0.160
    1UNL     H3   26  -0.483   0.008   0.212
    1UNL     H4   27  -0.361   0.182   0.102
    1UNL     H5   28  -0.420   0.235  -0.140
    1UNL     H6   29  -0.549   0.276  -0.006
    1UNL     H7   30  -0.576   0.143  -0.128
    1UNL     H8   31  -0.421  -0.055  -0.164
    1UNL     H9   32  -0.238   0.012   0.198
    1UNL    H10   33  -0.310  -0.132   0.169
    1UNL    H11   34  -0.076  -0.201   0.146
    1UNL    H12   35   0.032  -0.278  -0.136
    1UNL    H13   36   0.089  -0.240   0.038
    1UNL    H14   37   0.300  -0.254  -0.049
    1UNL    H15   38   0.182   0.082   0.097
    1UNL    H16   39   0.271   0.049   0.303
    1UNL    H17   40   0.370   0.179   0.244
    1UNL    H18   41   0.441  -0.089   0.276
    1UNL    H19   42   0.391   0.221   0.008
    1UNL    H20   43   0.221   0.072  -0.145
    1UNL    H21   44   0.499   0.084  -0.189
    1UNL    H22   45   0.548   0.026   0.075
    1UNL    H23   46   0.479  -0.170  -0.150
    1UNL    H24   47   0.265  -0.092  -0.280
    1UNL    H25   48  -0.150  -0.080  -0.225
    1UNL    H26   49  -0.024   0.027  -0.182
    1UNL    H27   50  -0.159   0.164  -0.046
    1UNL    H28   51  -0.251   0.117  -0.191
   0.00000   0.00000   0.00000   0.00000   0.00000   0.00000   0.00000   0.00000   0.00000
Generated with MDTraj, t= 63.0
 51
    1UNL     C1    1  -0.526   0.070   0.128
    1UNL     C2    2  -0.424   0.131   0.036
    1UNL     C3    3  -0.493   0.185  -0.086
    1UNL     C4    4  -0.321   0.014  -0.006
    1UNL     O1    5  -0.396  -0.090  -0.074
    1UNL     C5    6  -0.258  -0.056   0.113
    1UNL     C6    7  -0.138  -0.142   0.082
    1UNL     C7    8  -0.057  -0.126  -0.024
    1UNL     C8    9   0.079  -0.190  -0.018
    1UNL     O2   10   0.170  -0.141  -0.112
    1UNL     C9   11   0.305  -0.156  -0.070
    1UNL     O3   12   0.318  -0.111   0.064
    1UNL    C10   13   0.291   0.032   0.081
    1UNL    C11   14   0.333   0.069   0.237
    1UNL     O4   15   0.455  -0.004   0.263
    1UNL    C12   16   0.351   0.124  -0.024
    1UNL     O5   17   0.257   0.178  -0.119
    1UNL    C13   18   0.460   0.041  -0.095
    1UNL     O6   19   0.566  -0.004  -0.006
    1UNL    C14   20   0.402  -0.085  -0.166
    1UNL     O7   21   0.343  -0.048  -0.291
    1UNL    C15   22  -0.100  -0.027  -0.132
    1UNL    C16   23  -0.208   0.071  -0.097
    1UNL     H1   24  -0.570  -0.018   0.086
    1UNL     H2   25  -0.609   0.137   0.150
    1UNL     H3   26  -0.489   0.049   0.228
    1UNL     H4   27  -0.359   0.203   0.086
    1UNL     H5   28  -0.417   0.223  -0.162
    1UNL     H6   29  -0.573   0.256  -0.048
    1UNL     H7   30  -0.556   0.107  -0.137
    1UNL     H8   31  -0.414  -0.072  -0.167
    1UNL     H9   32  -0.229   0.005   0.193
    1UNL    H10   33  -0.339  -0.114   0.154
    1UNL    H11   34  -0.123  -0.230   0.154
    1UNL    H12   35   0.059  -0.298  -0.040
    1UNL    H13   36   0.127  -0.182   0.085
    1UNL    H14   37   0.337  -0.263  -0.081
    1UNL    H15   38   0.183   0.049   0.079
    1UNL    H16   39   0.254   0.033   0.300
    1UNL    H17   40   0.352   0.175   0.252
    1UNL    H18   41   0.446  -0.107   0.244
    1UNL    H19   42   0.398   0.223   0.011
    1UNL    H20   43   0.230   0.103  -0.183
    1UNL    H21   44   0.513   0.109  -0.167
    1UNL    H22   45   0.535   0.006   0.087
    1UNL    H23   46   0.492  -0.140  -0.185
    1UNL    H24   47   0.255  -0.096  -0.293
    1UNL    H25   48  -0.137  -0.089  -0.207
    1UNL    H26   49  -0.014   0.021  -0.180
    1UNL    H27   50  -0.159   0.152  -0.040
    1UNL    H28   51  -0.252   0.122  -0.187
   0.00000   0.00000   0.00000   0.00000   0.00000   0.00000   0.00000   0.00000   0.00000
Generated with MDTraj, t= 64.0
 51
    1UNL     C1    1  -0.526   0.069   0.121
    1UNL     C2    2  -0.423   0.127   0.028
    1UNL     C3    3  -0.482   0.183  -0.105
    1UNL     C4    4  -0.316   0.013  -0.007
    1UNL     O1    5  -0.381  -0.088  -0.089
    1UNL     C5    6  -0.268  -0.065   0.118
    1UNL     C6    7  -0.124  -0.111   0.115
    1UNL     C7    8  -0.049  -0.106   0.001
    1UNL     C8    9   0.072  -0.192  -0.013
    1UNL     O2   10   0.165  -0.123  -0.103
    1UNL     C9   11   0.299  -0.158  -0.071
    1UNL     O3   12   0.335  -0.119   0.063
    1UNL    C10   13   0.295   0.012   0.081
    1UNL    C11   14   0.304   0.040   0.237
    1UNL     O4   15   0.434   0.015   0.271
    1UNL    C12   16   0.358   0.114  -0.018
    1UNL     O5   17   0.267   0.179  -0.104
    1UNL    C13   18   0.465   0.044  -0.110
    1UNL     O6   19   0.578  -0.002  -0.044
    1UNL    C14   20   0.390  -0.086  -0.175
    1UNL     O7   21   0.316  -0.027  -0.282
    1UNL    C15   22  -0.102  -0.049  -0.125
    1UNL    C16   23  -0.194   0.065  -0.088
    1UNL     H1   24  -0.583  -0.009   0.077
    1UNL     H2   25  -0.597   0.144   0.149
    1UNL     H3   26  -0.488   0.037   0.221
    1UNL     H4   27  -0.362   0.197   0.084
    1UNL     H5   28  -0.395   0.232  -0.174
    1UNL     H6   29  -0.569   0.248  -0.081
    1UNL     H7   30  -0.535   0.109  -0.169
    1UNL     H8   31  -0.389  -0.069  -0.181
    1UNL     H9   32  -0.281  -0.003   0.203
    1UNL    H10   33  -0.335  -0.146   0.139
    1UNL    H11   34  -0.103  -0.175   0.194
    1UNL    H12   35   0.061  -0.292  -0.057
    1UNL    H13   36   0.123  -0.206   0.085
    1UNL    H14   37   0.317  -0.267  -0.086
    1UNL    H15   38   0.189   0.016   0.066
    1UNL    H16   39   0.233  -0.026   0.292
    1UNL    H17   40   0.283   0.149   0.255
    1UNL    H18   41   0.451  -0.074   0.249
    1UNL    H19   42   0.416   0.196   0.036
    1UNL    H20   43   0.235   0.123  -0.173
    1UNL    H21   44   0.495   0.113  -0.194
    1UNL    H22   45   0.534  -0.048   0.033
    1UNL    H23   46   0.458  -0.155  -0.228
    1UNL    H24   47   0.247  -0.093  -0.306
    1UNL    H25   48  -0.139  -0.124  -0.189
    1UNL    H26   49  -0.012  -0.017  -0.178
    1UNL    H27   50  -0.136   0.125  -0.017
    1UNL    H28   51  -0.229   0.136  -0.167
   0.00000   0.00000   0.00000   0.00000   0.00000   0.00000   0.00000   0.00000   0.00000
Generated with MDTraj, t= 65.0
 51
    1UNL     C1    1  -0.541   0.060   0.087
    1UNL     C2    2  -0.416   0.122   0.020
    1UNL     C3    3  -0.462   0.201  -0.099
    1UNL     C4    4  -0.310   0.011  -0.012
    1UNL     O1    5  -0.375  -0.108  -0.068
    1UNL     C5    6  -0.245  -0.038   0.126
    1UNL     C6    7  -0.133  -0.134   0.116
    1UNL     C7    8  -0.058  -0.131   0.004
    1UNL     C8    9   0.063  -0.215  -0.002
    1UNL     O2   10   0.159  -0.166  -0.106
    1UNL     C9   11   0.303  -0.159  -0.078
    1UNL     O3   12   0.323  -0.108   0.062
    1UNL    C10   13   0.283   0.024   0.074
    1UNL    C11   14   0.308   0.054   0.224
    1UNL     O4   15   0.435   0.015   0.281
    1UNL    C12   16   0.372   0.123  -0.012
    1UNL     O5   17   0.285   0.213  -0.078
    1UNL    C13   18   0.462   0.039  -0.114
    1UNL     O6   19   0.576  -0.017  -0.057
    1UNL    C14   20   0.371  -0.074  -0.184
    1UNL     O7   21   0.293  -0.009  -0.279
    1UNL    C15   22  -0.088  -0.042  -0.113
    1UNL    C16   23  -0.198   0.065  -0.101
    1UNL     H1   24  -0.590  -0.015   0.029
    1UNL     H2   25  -0.607   0.139   0.112
    1UNL     H3   26  -0.501   0.019   0.183
    1UNL     H4   27  -0.372   0.181   0.100
    1UNL     H5   28  -0.379   0.244  -0.155
    1UNL     H6   29  -0.543   0.268  -0.059
    1UNL     H7   30  -0.528   0.146  -0.174
    1UNL     H8   31  -0.415  -0.088  -0.152
    1UNL     H9   32  -0.228   0.049   0.188
    1UNL    H10   33  -0.321  -0.084   0.181
    1UNL    H11   34  -0.126  -0.214   0.196
    1UNL    H12   35   0.039  -0.316  -0.027
    1UNL    H13   36   0.129  -0.222   0.085
    1UNL    H14   37   0.340  -0.262  -0.075
    1UNL    H15   38   0.180   0.039   0.056
    1UNL    H16   39   0.234   0.004   0.294
    1UNL    H17   40   0.303   0.168   0.241
    1UNL    H18   41   0.465  -0.075   0.245
    1UNL    H19   42   0.444   0.177   0.059
    1UNL    H20   43   0.258   0.177  -0.167
    1UNL    H21   44   0.510   0.105  -0.193
    1UNL    H22   45   0.545  -0.070   0.016
    1UNL    H23   46   0.438  -0.152  -0.233
    1UNL    H24   47   0.240  -0.077  -0.325
    1UNL    H25   48  -0.098  -0.103  -0.201
    1UNL    H26   49   0.005   0.008  -0.136
    1UNL    H27   50  -0.173   0.159  -0.050
    1UNL    H28   51  -0.231   0.093  -0.204
   0.00000   0.00000   0.00000   0.00000   0.00000   0.00000   0.00000   0.00000   0.00000
Generated with MDTraj, t= 66.0
 51
    1UNL     C1    1  -0.538   0.048   0.078
    1UNL     C2    2  -0.413   0.120   0.023
    1UNL     C3    3  -0.448   0.197  -0.108
    1UNL     C4    4  -0.307   0.007   0.002
    1UNL     O1    5  -0.354  -0.109  -0.071
    1UNL     C5    6  -0.243  -0.045   0.137
    1UNL     C6    7  -0.113  -0.117   0.116
    1UNL     C7    8  -0.046  -0.125  -0.002
    1UNL     C8    9   0.070  -0.211  -0.003
    1UNL     O2   10   0.156  -0.192  -0.118
    1UNL     C9   11   0.293  -0.161  -0.078
    1UNL     O3   12   0.310  -0.106   0.055
    1UNL    C10   13   0.284   0.035   0.067
    1UNL    C11   14   0.298   0.075   0.211
    1UNL     O4   15   0.415   0.013   0.257
    1UNL    C12   16   0.382   0.120  -0.018
    1UNL     O5   17   0.316   0.234  -0.081
    1UNL    C13   18   0.465   0.030  -0.111
    1UNL     O6   19   0.551  -0.052  -0.042
    1UNL    C14   20   0.355  -0.066  -0.177
    1UNL     O7   21   0.261   0.016  -0.251
    1UNL    C15   22  -0.085  -0.046  -0.117
    1UNL    C16   23  -0.188   0.059  -0.079
    1UNL     H1   24  -0.573  -0.031   0.013
    1UNL     H2   25  -0.618   0.116   0.091
    1UNL     H3   26  -0.515   0.005   0.176
    1UNL     H4   27  -0.370   0.179   0.104
    1UNL     H5   28  -0.368   0.250  -0.138
    1UNL     H6   29  -0.547   0.252  -0.092
    1UNL     H7   30  -0.479   0.132  -0.197
    1UNL     H8   31  -0.389  -0.076  -0.158
    1UNL     H9   32  -0.240   0.036   0.211
    1UNL    H10   33  -0.313  -0.104   0.185
    1UNL    H11   34  -0.091  -0.191   0.190
    1UNL    H12   35   0.050  -0.316  -0.006
    1UNL    H13   36   0.134  -0.201   0.084
    1UNL    H14   37   0.351  -0.253  -0.076
    1UNL    H15   38   0.189   0.050   0.025
    1UNL    H16   39   0.212   0.027   0.270
    1UNL    H17   40   0.312   0.187   0.241
    1UNL    H18   41   0.396  -0.082   0.249
    1UNL    H19   42   0.454   0.174   0.053
    1UNL    H20   43   0.247   0.204  -0.148
    1UNL    H21   44   0.524   0.102  -0.175
    1UNL    H22   45   0.523  -0.051   0.053
    1UNL    H23   46   0.419  -0.117  -0.259
    1UNL    H24   47   0.178  -0.035  -0.265
    1UNL    H25   48  -0.134  -0.108  -0.190
    1UNL    H26   49  -0.001  -0.009  -0.168
    1UNL    H27   50  -0.124   0.124  -0.015
    1UNL    H28   51  -0.226   0.112  -0.169
   0.00000   0.00000   0.00000   0.00000   0.00000   0.00000   0.00000   0.00000   0.00000
Generated with MDTraj, t= 67.0
 51
    1UNL     C1    1  -0.520   0.047   0.102
    1UNL     C2    2  -0.409   0.113   0.026
    1UNL     C3    3  -0.452   0.183  -0.107
    1UNL     C4    4  -0.301   0.006  -0.002
    1UNL     O1    5  -0.356  -0.109  -0.075
    1UNL     C5    6  -0.245  -0.053   0.128
    1UNL     C6    7  -0.118  -0.131   0.118
    1UNL     C7    8  -0.049  -0.131   0.003
    1UNL     C8    9   0.064  -0.223  -0.009
    1UNL     O2   10   0.150  -0.176  -0.113
    1UNL     C9   11   0.293  -0.156  -0.078
    1UNL     O3   12   0.302  -0.104   0.056
    1UNL    C10   13   0.281   0.040   0.065
    1UNL    C11   14   0.260   0.084   0.211
    1UNL     O4   15   0.374   0.033   0.284
    1UNL    C12   16   0.397   0.113  -0.021
    1UNL     O5   17   0.338   0.224  -0.081
    1UNL    C13   18   0.474   0.021  -0.124
    1UNL     O6   19   0.572  -0.056  -0.069
    1UNL    C14   20   0.359  -0.069  -0.186
    1UNL     O7   21   0.264   0.017  -0.252
    1UNL    C15   22  -0.075  -0.025  -0.106
    1UNL    C16   23  -0.181   0.076  -0.077
    1UNL     H1   24  -0.570  -0.035   0.052
    1UNL     H2   25  -0.601   0.118   0.117
    1UNL     H3   26  -0.505   0.012   0.203
    1UNL     H4   27  -0.361   0.186   0.092
    1UNL     H5   28  -0.365   0.223  -0.149
    1UNL     H6   29  -0.536   0.256  -0.084
    1UNL     H7   30  -0.497   0.119  -0.179
    1UNL     H8   31  -0.386  -0.080  -0.168
    1UNL     H9   32  -0.243   0.023   0.207
    1UNL    H10   33  -0.322  -0.114   0.166
    1UNL    H11   34  -0.103  -0.213   0.186
    1UNL    H12   35   0.039  -0.327  -0.025
    1UNL    H13   36   0.129  -0.227   0.078
    1UNL    H14   37   0.331  -0.258  -0.073
    1UNL    H15   38   0.195   0.053   0.008
    1UNL    H16   39   0.173   0.049   0.273
    1UNL    H17   40   0.272   0.197   0.220
    1UNL    H18   41   0.370  -0.063   0.258
    1UNL    H19   42   0.473   0.141   0.058
    1UNL    H20   43   0.320   0.201  -0.172
    1UNL    H21   44   0.520   0.083  -0.204
    1UNL    H22   45   0.551  -0.102   0.017
    1UNL    H23   46   0.388  -0.137  -0.274
    1UNL    H24   47   0.187  -0.041  -0.265
    1UNL    H25   48  -0.087  -0.076  -0.202
    1UNL    H26   49   0.012   0.031  -0.119
    1UNL    H27   50  -0.133   0.152  -0.012
    1UNL    H28   51  -0.207   0.115  -0.178
   0.00000   0.00000   0.00000   0.00000   0.00000   0.00000   0.00000   0.00000   0.00000
Generated with MDTraj, t= 68.0
 51
    1UNL     C1    1  -0.521   0.046   0.125
    1UNL     C2    2  -0.419   0.117   0.034
    1UNL     C3    3  -0.486   0.172  -0.087
    1UNL     C4    4  -0.304   0.010   0.003
    1UNL     O1    5  -0.366  -0.086  -0.081
    1UNL     C5    6  -0.254  -0.051   0.135
    1UNL     C6    7  -0.130  -0.132   0.110
    1UNL     C7    8  -0.055  -0.135  -0.003
    1UNL     C8    9   0.074  -0.212  -0.008
    1UNL     O2   10   0.166  -0.184  -0.118
    1UNL     C9   11   0.301  -0.166  -0.077
    1UNL     O3   12   0.307  -0.105   0.049
    1UNL    C10   13   0.276   0.036   0.041
    1UNL    C11   14   0.231   0.073   0.178
    1UNL     O4   15   0.335   0.057   0.279
    1UNL    C12   16   0.405   0.111  -0.014
    1UNL     O5   17   0.378   0.234  -0.064
    1UNL    C13   18   0.482   0.017  -0.118
    1UNL     O6   19   0.589  -0.053  -0.057
    1UNL    C14   20   0.371  -0.078  -0.188
    1UNL     O7   21   0.285   0.000  -0.273
    1UNL    C15   22  -0.076  -0.028  -0.111
    1UNL    C16   23  -0.178   0.076  -0.067
    1UNL     H1   24  -0.570  -0.038   0.075
    1UNL     H2   25  -0.601   0.115   0.155
    1UNL     H3   26  -0.480   0.012   0.216
    1UNL     H4   27  -0.376   0.204   0.085
    1UNL     H5   28  -0.414   0.206  -0.163
    1UNL     H6   29  -0.557   0.245  -0.049
    1UNL     H7   30  -0.551   0.107  -0.129
    1UNL     H8   31  -0.391  -0.052  -0.174
    1UNL     H9   32  -0.254   0.017   0.221
    1UNL    H10   33  -0.328  -0.124   0.166
    1UNL    H11   34  -0.107  -0.218   0.176
    1UNL    H12   35   0.056  -0.319  -0.018
    1UNL    H13   36   0.132  -0.212   0.086
    1UNL    H14   37   0.363  -0.257  -0.062
    1UNL    H15   38   0.203   0.044  -0.034
    1UNL    H16   39   0.155   0.002   0.212
    1UNL    H17   40   0.205   0.181   0.194
    1UNL    H18   41   0.372  -0.038   0.269
    1UNL    H19   42   0.467   0.135   0.076
    1UNL    H20   43   0.357   0.232  -0.163
    1UNL    H21   44   0.524   0.085  -0.194
    1UNL    H22   45   0.549  -0.103   0.016
    1UNL    H23   46   0.434  -0.141  -0.257
    1UNL    H24   47   0.206  -0.059  -0.285
    1UNL    H25   48  -0.107  -0.078  -0.202
    1UNL    H26   49   0.022   0.005  -0.123
    1UNL    H27   50  -0.122   0.133   0.009
    1UNL    H28   51  -0.195   0.140  -0.156
   0.00000   0.00000   0.00000   0.00000   0.00000   0.00000   0.00000   0.00000   0.00000
Generated with MDTraj, t= 69.0
 51
    1UNL     C1    1  -0.516   0.052   0.145
    1UNL     C2    2  -0.409   0.113   0.052
    1UNL     C3    3  -0.476   0.184  -0.068
    1UNL     C4    4  -0.310  -0.000   0.007
    1UNL     O1    5  -0.384  -0.098  -0.073
    1UNL     C5    6  -0.249  -0.074   0.123
    1UNL     C6    7  -0.114  -0.133   0.102
    1UNL     C7    8  -0.048  -0.137  -0.015
    1UNL     C8    9   0.074  -0.221  -0.038
    1UNL     O2   10   0.161  -0.155  -0.130
    1UNL     C9   11   0.296  -0.154  -0.077
    1UNL     O3   12   0.304  -0.095   0.050
    1UNL    C10   13   0.285   0.046   0.042
    1UNL    C11   14   0.237   0.112   0.171
    1UNL     O4   15   0.309   0.055   0.279
    1UNL    C12   16   0.409   0.116  -0.016
    1UNL     O5   17   0.382   0.222  -0.091
    1UNL    C13   18   0.486   0.012  -0.101
    1UNL     O6   19   0.569  -0.080  -0.025
    1UNL    C14   20   0.386  -0.076  -0.179
    1UNL     O7   21   0.312   0.001  -0.272
    1UNL    C15   22  -0.089  -0.033  -0.122
    1UNL    C16   23  -0.196   0.069  -0.074
    1UNL     H1   24  -0.574  -0.009   0.076
    1UNL     H2   25  -0.578   0.133   0.186
    1UNL     H3   26  -0.469  -0.006   0.220
    1UNL     H4   27  -0.353   0.187   0.112
    1UNL     H5   28  -0.403   0.237  -0.132
    1UNL     H6   29  -0.558   0.234  -0.041
    1UNL     H7   30  -0.524   0.113  -0.130
    1UNL     H8   31  -0.386  -0.065  -0.166
    1UNL     H9   32  -0.240  -0.024   0.217
    1UNL    H10   33  -0.318  -0.156   0.151
    1UNL    H11   34  -0.080  -0.210   0.165
    1UNL    H12   35   0.062  -0.330  -0.062
    1UNL    H13   36   0.132  -0.226   0.056
    1UNL    H14   37   0.330  -0.260  -0.062
    1UNL    H15   38   0.210   0.059  -0.034
    1UNL    H16   39   0.137   0.087   0.194
    1UNL    H17   40   0.266   0.218   0.180
    1UNL    H18   41   0.318  -0.038   0.265
    1UNL    H19   42   0.472   0.152   0.066
    1UNL    H20   43   0.348   0.188  -0.183
    1UNL    H21   44   0.552   0.062  -0.173
    1UNL    H22   45   0.516  -0.125   0.043
    1UNL    H23   46   0.452  -0.148  -0.230
    1UNL    H24   47   0.229  -0.050  -0.270
    1UNL    H25   48  -0.122  -0.098  -0.201
    1UNL    H26   49  -0.000   0.013  -0.162
    1UNL    H27   50  -0.138   0.139  -0.009
    1UNL    H28   51  -0.232   0.124  -0.163
   0.00000   0.00000   0.00000   0.00000   0.00000   0.00000   0.00000   0.00000   0.00000
Generated with MDTraj, t= 70.0
 51
    1UNL     C1    1  -0.518   0.046   0.146
    1UNL     C2    2  -0.406   0.105   0.066
    1UNL     C3    3  -0.461   0.210  -0.038
    1UNL     C4    4  -0.308  -0.004   0.011
    1UNL     O1    5  -0.391  -0.106  -0.053
    1UNL     C5    6  -0.229  -0.071   0.128
    1UNL     C6    7  -0.116  -0.151   0.084
    1UNL     C7    8  -0.060  -0.148  -0.038
    1UNL     C8    9   0.063  -0.225  -0.064
    1UNL     O2   10   0.156  -0.153  -0.140
    1UNL     C9   11   0.288  -0.142  -0.074
    1UNL     O3   12   0.277  -0.082   0.052
    1UNL    C10   13   0.274   0.060   0.030
    1UNL    C11   14   0.244   0.130   0.168
    1UNL     O4   15   0.325   0.052   0.255
    1UNL    C12   16   0.413   0.121  -0.022
    1UNL     O5   17   0.396   0.228  -0.109
    1UNL    C13   18   0.498   0.003  -0.080
    1UNL     O6   19   0.549  -0.076   0.033
    1UNL    C14   20   0.401  -0.080  -0.169
    1UNL     O7   21   0.339  -0.004  -0.275
    1UNL    C15   22  -0.109  -0.052  -0.146
    1UNL    C16   23  -0.204   0.055  -0.089
    1UNL     H1   24  -0.557  -0.041   0.096
    1UNL     H2   25  -0.599   0.118   0.164
    1UNL     H3   26  -0.477   0.014   0.241
    1UNL     H4   27  -0.348   0.165   0.139
    1UNL     H5   28  -0.379   0.258  -0.088
    1UNL     H6   29  -0.532   0.270   0.007
    1UNL     H7   30  -0.522   0.165  -0.116
    1UNL     H8   31  -0.434  -0.068  -0.129
    1UNL     H9   32  -0.195  -0.006   0.206
    1UNL    H10   33  -0.284  -0.147   0.192
    1UNL    H11   34  -0.072  -0.233   0.148
    1UNL    H12   35   0.047  -0.327  -0.109
    1UNL    H13   36   0.115  -0.249   0.034
    1UNL    H14   37   0.305  -0.251  -0.054
    1UNL    H15   38   0.194   0.088  -0.037
    1UNL    H16   39   0.146   0.128   0.205
    1UNL    H17   40   0.293   0.225   0.167
    1UNL    H18   41   0.313  -0.051   0.240
    1UNL    H19   42   0.460   0.168   0.063
    1UNL    H20   43   0.359   0.196  -0.189
    1UNL    H21   44   0.579   0.037  -0.145
    1UNL    H22   45   0.471  -0.101   0.090
    1UNL    H23   46   0.455  -0.153  -0.225
    1UNL    H24   47   0.253  -0.052  -0.286
    1UNL    H25   48  -0.150  -0.100  -0.232
    1UNL    H26   49  -0.020  -0.002  -0.190
    1UNL    H27   50  -0.151   0.146  -0.049
    1UNL    H28   51  -0.270   0.084  -0.172
   0.00000   0.00000   0.00000   0.00000   0.00000   0.00000   0.00000   0.00000   0.00000
Generated with MDTraj, t= 71.0
 51
    1UNL     C1    1  -0.504   0.051   0.165
    1UNL     C2    2  -0.392   0.107   0.080
    1UNL     C3    3  -0.460   0.205  -0.021
    1UNL     C4    4  -0.306  -0.002   0.011
    1UNL     O1    5  -0.384  -0.104  -0.051
    1UNL     C5    6  -0.218  -0.077   0.120
    1UNL     C6    7  -0.092  -0.140   0.072
    1UNL     C7    8  -0.060  -0.145  -0.059
    1UNL     C8    9   0.061  -0.227  -0.106
    1UNL     O2   10   0.165  -0.152  -0.162
    1UNL     C9   11   0.281  -0.149  -0.079
    1UNL     O3   12   0.262  -0.081   0.045
    1UNL    C10   13   0.271   0.064   0.042
    1UNL    C11   14   0.226   0.130   0.176
    1UNL     O4   15   0.320   0.117   0.277
    1UNL    C12   16   0.404   0.109  -0.005
    1UNL     O5   17   0.383   0.202  -0.111
    1UNL    C13   18   0.488  -0.011  -0.069
    1UNL     O6   19   0.549  -0.083   0.039
    1UNL    C14   20   0.398  -0.092  -0.164
    1UNL     O7   21   0.358  -0.004  -0.274
    1UNL    C15   22  -0.125  -0.061  -0.157
    1UNL    C16   23  -0.201   0.054  -0.094
    1UNL     H1   24  -0.579  -0.007   0.112
    1UNL     H2   25  -0.562   0.118   0.228
    1UNL     H3   26  -0.467  -0.024   0.236
    1UNL     H4   27  -0.321   0.169   0.139
    1UNL     H5   28  -0.400   0.260  -0.084
    1UNL     H6   29  -0.541   0.263   0.036
    1UNL     H7   30  -0.527   0.148  -0.086
    1UNL     H8   31  -0.449  -0.066  -0.109
    1UNL     H9   32  -0.197  -0.027   0.214
    1UNL    H10   33  -0.280  -0.164   0.160
    1UNL    H11   34  -0.027  -0.192   0.133
    1UNL    H12   35   0.033  -0.304  -0.183
    1UNL    H13   36   0.101  -0.288  -0.022
    1UNL    H14   37   0.294  -0.257  -0.056
    1UNL    H15   38   0.196   0.092  -0.034
    1UNL    H16   39   0.142   0.068   0.196
    1UNL    H17   40   0.215   0.235   0.165
    1UNL    H18   41   0.361   0.031   0.265
    1UNL    H19   42   0.461   0.152   0.074
    1UNL    H20   43   0.378   0.147  -0.195
    1UNL    H21   44   0.574   0.037  -0.115
    1UNL    H22   45   0.480  -0.132   0.085
    1UNL    H23   46   0.465  -0.160  -0.209
    1UNL    H24   47   0.286  -0.047  -0.324
    1UNL    H25   48  -0.195  -0.117  -0.213
    1UNL    H26   49  -0.060  -0.025  -0.240
    1UNL    H27   50  -0.142   0.123  -0.027
    1UNL    H28   51  -0.250   0.117  -0.169
   0.00000   0.00000   0.00000   0.00000   0.00000   0.00000   0.00000   0.00000   0.00000
Generated with MDTraj, t= 72.0
 51
    1UNL     C1    1  -0.462   0.059   0.200
    1UNL     C2    2  -0.379   0.114   0.087
    1UNL     C3    3  -0.468   0.198  -0.007
    1UNL     C4    4  -0.302   0.001   0.013
    1UNL     O1    5  -0.383  -0.097  -0.040
    1UNL     C5    6  -0.208  -0.073   0.114
    1UNL     C6    7  -0.101  -0.154   0.058
    1UNL     C7    8  -0.058  -0.143  -0.070
    1UNL     C8    9   0.061  -0.230  -0.114
    1UNL     O2   10   0.166  -0.152  -0.166
    1UNL     C9   11   0.286  -0.156  -0.084
    1UNL     O3   12   0.261  -0.097   0.048
    1UNL    C10   13   0.252   0.048   0.026
    1UNL    C11   14   0.190   0.112   0.150
    1UNL     O4   15   0.283   0.121   0.260
    1UNL    C12   16   0.391   0.108  -0.003
    1UNL     O5   17   0.388   0.212  -0.109
    1UNL    C13   18   0.489  -0.003  -0.054
    1UNL     O6   19   0.549  -0.071   0.053
    1UNL    C14   20   0.412  -0.090  -0.151
    1UNL     O7   21   0.368  -0.017  -0.266
    1UNL    C15   22  -0.109  -0.045  -0.169
    1UNL    C16   23  -0.200   0.057  -0.107
    1UNL     H1   24  -0.530  -0.015   0.159
    1UNL     H2   25  -0.519   0.138   0.245
    1UNL     H3   26  -0.398   0.007   0.277
    1UNL     H4   27  -0.300   0.184   0.124
    1UNL     H5   28  -0.415   0.251  -0.080
    1UNL     H6   29  -0.546   0.268   0.049
    1UNL     H7   30  -0.539   0.141  -0.067
    1UNL     H8   31  -0.455  -0.066  -0.097
    1UNL     H9   32  -0.169   0.002   0.183
    1UNL    H10   33  -0.278  -0.131   0.182
    1UNL    H11   34  -0.049  -0.236   0.115
    1UNL    H12   35   0.029  -0.308  -0.186
    1UNL    H13   36   0.101  -0.291  -0.031
    1UNL    H14   37   0.296  -0.263  -0.063
    1UNL    H15   38   0.189   0.063  -0.065
    1UNL    H16   39   0.107   0.053   0.186
    1UNL    H17   40   0.169   0.212   0.115
    1UNL    H18   41   0.341   0.048   0.260
    1UNL    H19   42   0.435   0.154   0.081
    1UNL    H20   43   0.340   0.191  -0.190
    1UNL    H21   44   0.573   0.042  -0.107
    1UNL    H22   45   0.475  -0.093   0.117
    1UNL    H23   46   0.474  -0.168  -0.189
    1UNL    H24   47   0.291  -0.070  -0.297
    1UNL    H25   48  -0.151  -0.082  -0.257
    1UNL    H26   49  -0.025   0.013  -0.216
    1UNL    H27   50  -0.143   0.145  -0.069
    1UNL    H28   51  -0.280   0.099  -0.170
   0.00000   0.00000   0.00000   0.00000   0.00000   0.00000   0.00000   0.00000   0.00000
Generated with MDTraj, t= 73.0
 51
    1UNL     C1    1  -0.426   0.070   0.215
    1UNL     C2    2  -0.361   0.122   0.086
    1UNL     C3    3  -0.469   0.175  -0.009
    1UNL     C4    4  -0.275   0.013   0.024
    1UNL     O1    5  -0.361  -0.084  -0.039
    1UNL     C5    6  -0.185  -0.068   0.121
    1UNL     C6    7  -0.072  -0.139   0.065
    1UNL     C7    8  -0.038  -0.137  -0.066
    1UNL     C8    9   0.067  -0.232  -0.113
    1UNL     O2   10   0.177  -0.165  -0.172
    1UNL     C9   11   0.280  -0.155  -0.087
    1UNL     O3   12   0.246  -0.091   0.043
    1UNL    C10   13   0.234   0.053   0.015
    1UNL    C11   14   0.169   0.121   0.130
    1UNL     O4   15   0.214   0.064   0.249
    1UNL    C12   16   0.378   0.114  -0.010
    1UNL     O5   17   0.368   0.218  -0.112
    1UNL    C13   18   0.482   0.005  -0.055
    1UNL     O6   19   0.523  -0.062   0.065
    1UNL    C14   20   0.410  -0.099  -0.149
    1UNL     O7   21   0.371  -0.031  -0.268
    1UNL    C15   22  -0.105  -0.044  -0.163
    1UNL    C16   23  -0.177   0.070  -0.097
    1UNL     H1   24  -0.464  -0.029   0.187
    1UNL     H2   25  -0.509   0.134   0.237
    1UNL     H3   26  -0.356   0.060   0.302
    1UNL     H4   27  -0.295   0.210   0.106
    1UNL     H5   28  -0.422   0.216  -0.110
    1UNL     H6   29  -0.537   0.250   0.042
    1UNL     H7   30  -0.544   0.103  -0.037
    1UNL     H8   31  -0.408  -0.040  -0.116
    1UNL     H9   32  -0.149  -0.013   0.213
    1UNL    H10   33  -0.256  -0.146   0.161
    1UNL    H11   34  -0.015  -0.196   0.129
    1UNL    H12   35   0.025  -0.295  -0.191
    1UNL    H13   36   0.103  -0.301  -0.037
    1UNL    H14   37   0.301  -0.254  -0.050
    1UNL    H15   38   0.158   0.064  -0.067
    1UNL    H16   39   0.062   0.104   0.125
    1UNL    H17   40   0.201   0.228   0.139
    1UNL    H18   41   0.209  -0.036   0.252
    1UNL    H19   42   0.401   0.155   0.084
    1UNL    H20   43   0.364   0.169  -0.200
    1UNL    H21   44   0.573   0.036  -0.105
    1UNL    H22   45   0.441  -0.069   0.119
    1UNL    H23   46   0.484  -0.174  -0.178
    1UNL    H24   47   0.303  -0.086  -0.313
    1UNL    H25   48  -0.168  -0.089  -0.234
    1UNL    H26   49  -0.034   0.004  -0.234
    1UNL    H27   50  -0.112   0.137  -0.037
    1UNL    H28   51  -0.233   0.140  -0.165
   0.00000   0.00000   0.00000   0.00000   0.00000   0.00000   0.00000   0.00000   0.00000
Generated with MDTraj, t= 74.0
 51
    1UNL     C1    1  -0.416   0.084   0.215
    1UNL     C2    2  -0.341   0.130   0.090
    1UNL     C3    3  -0.442   0.183  -0.008
    1UNL     C4    4  -0.257   0.011   0.032
    1UNL     O1    5  -0.346  -0.087  -0.015
    1UNL     C5    6  -0.161  -0.064   0.129
    1UNL     C6    7  -0.055  -0.144   0.062
    1UNL     C7    8  -0.023  -0.137  -0.068
    1UNL     C8    9   0.071  -0.241  -0.120
    1UNL     O2   10   0.189  -0.189  -0.184
    1UNL     C9   11   0.283  -0.164  -0.091
    1UNL     O3   12   0.230  -0.088   0.025
    1UNL    C10   13   0.224   0.056   0.007
    1UNL    C11   14   0.146   0.121   0.120
    1UNL     O4   15   0.154   0.049   0.243
    1UNL    C12   16   0.363   0.113  -0.013
    1UNL     O5   17   0.350   0.216  -0.120
    1UNL    C13   18   0.464   0.002  -0.045
    1UNL     O6   19   0.502  -0.059   0.082
    1UNL    C14   20   0.409  -0.091  -0.149
    1UNL     O7   21   0.371  -0.016  -0.268
    1UNL    C15   22  -0.079  -0.034  -0.161
    1UNL    C16   23  -0.170   0.067  -0.091
    1UNL     H1   24  -0.483  -0.000   0.190
    1UNL     H2   25  -0.477   0.163   0.259
    1UNL     H3   26  -0.356   0.046   0.298
    1UNL     H4   27  -0.273   0.215   0.113
    1UNL     H5   28  -0.402   0.216  -0.114
    1UNL     H6   29  -0.502   0.259   0.047
    1UNL     H7   30  -0.524   0.107  -0.021
    1UNL     H8   31  -0.389  -0.051  -0.100
    1UNL     H9   32  -0.114   0.009   0.205
    1UNL    H10   33  -0.212  -0.147   0.184
    1UNL    H11   34   0.009  -0.214   0.124
    1UNL    H12   35   0.027  -0.310  -0.190
    1UNL    H13   36   0.106  -0.309  -0.044
    1UNL    H14   37   0.316  -0.261  -0.055
    1UNL    H15   38   0.173   0.085  -0.088
    1UNL    H16   39   0.041   0.137   0.101
    1UNL    H17   40   0.203   0.217   0.145
    1UNL    H18   41   0.122  -0.043   0.230
    1UNL    H19   42   0.403   0.168   0.068
    1UNL    H20   43   0.361   0.161  -0.201
    1UNL    H21   44   0.551   0.060  -0.075
    1UNL    H22   45   0.422  -0.098   0.123
    1UNL    H23   46   0.483  -0.168  -0.181
    1UNL    H24   47   0.328  -0.080  -0.329
    1UNL    H25   48  -0.130  -0.077  -0.242
    1UNL    H26   49   0.002   0.016  -0.220
    1UNL    H27   50  -0.118   0.156  -0.051
    1UNL    H28   51  -0.255   0.114  -0.148
   0.00000   0.00000   0.00000   0.00000   0.00000   0.00000   0.00000   0.00000   0.00000
Generated with MDTraj, t= 75.0
 51
    1UNL     C1    1  -0.397   0.069   0.215
    1UNL     C2    2  -0.320   0.125   0.102
    1UNL     C3    3  -0.408   0.214   0.017
    1UNL     C4    4  -0.250   0.010   0.024
    1UNL     O1    5  -0.349  -0.088  -0.011
    1UNL     C5    6  -0.159  -0.066   0.117
    1UNL     C6    7  -0.068  -0.163   0.049
    1UNL     C7    8  -0.045  -0.163  -0.081
    1UNL     C8    9   0.062  -0.254  -0.126
    1UNL     O2   10   0.172  -0.178  -0.176
    1UNL     C9   11   0.272  -0.154  -0.080
    1UNL     O3   12   0.234  -0.086   0.036
    1UNL    C10   13   0.223   0.059   0.004
    1UNL    C11   14   0.135   0.131   0.104
    1UNL     O4   15   0.123   0.058   0.231
    1UNL    C12   16   0.366   0.123  -0.008
    1UNL     O5   17   0.376   0.219  -0.113
    1UNL    C13   18   0.473   0.020  -0.041
    1UNL     O6   19   0.520  -0.051   0.077
    1UNL    C14   20   0.408  -0.088  -0.137
    1UNL     O7   21   0.364  -0.018  -0.253
    1UNL    C15   22  -0.108  -0.066  -0.177
    1UNL    C16   23  -0.169   0.056  -0.107
    1UNL     H1   24  -0.472  -0.005   0.176
    1UNL     H2   25  -0.449   0.150   0.271
    1UNL     H3   26  -0.344   0.012   0.290
    1UNL     H4   27  -0.238   0.185   0.147
    1UNL     H5   28  -0.355   0.260  -0.065
    1UNL     H6   29  -0.468   0.288   0.076
    1UNL     H7   30  -0.499   0.152  -0.031
    1UNL     H8   31  -0.406  -0.046  -0.083
    1UNL     H9   32  -0.080  -0.002   0.172
    1UNL    H10   33  -0.221  -0.120   0.190
    1UNL    H11   34  -0.008  -0.238   0.094
    1UNL    H12   35   0.046  -0.338  -0.191
    1UNL    H13   36   0.094  -0.307  -0.038
    1UNL    H14   37   0.305  -0.256  -0.057
    1UNL    H15   38   0.176   0.081  -0.095
    1UNL    H16   39   0.033   0.132   0.072
    1UNL    H17   40   0.166   0.242   0.123
    1UNL    H18   41   0.200  -0.001   0.228
    1UNL    H19   42   0.390   0.172   0.084
    1UNL    H20   43   0.346   0.174  -0.194
    1UNL    H21   44   0.566   0.066  -0.081
    1UNL    H22   45   0.444  -0.089   0.126
    1UNL    H23   46   0.473  -0.169  -0.183
    1UNL    H24   47   0.304  -0.074  -0.307
    1UNL    H25   48  -0.179  -0.118  -0.234
    1UNL    H26   49  -0.026  -0.040  -0.246
    1UNL    H27   50  -0.098   0.141  -0.091
    1UNL    H28   51  -0.248   0.096  -0.177
   0.00000   0.00000   0.00000   0.00000   0.00000   0.00000   0.00000   0.00000   0.00000
Generated with MDTraj, t= 76.0
 51
    1UNL     C1    1  -0.395   0.093   0.223
    1UNL     C2    2  -0.302   0.118   0.104
    1UNL     C3    3  -0.368   0.224   0.011
    1UNL     C4    4  -0.267  -0.014   0.028
    1UNL     O1    5  -0.386  -0.087  -0.003
    1UNL     C5    6  -0.186  -0.106   0.114
    1UNL     C6    7  -0.062  -0.154   0.050
    1UNL     C7    8  -0.033  -0.168  -0.079
    1UNL     C8    9   0.074  -0.248  -0.134
    1UNL     O2   10   0.184  -0.178  -0.191
    1UNL     C9   11   0.276  -0.148  -0.088
    1UNL     O3   12   0.221  -0.072   0.024
    1UNL    C10   13   0.223   0.077   0.001
    1UNL    C11   14   0.134   0.144   0.100
    1UNL     O4   15   0.137   0.090   0.232
    1UNL    C12   16   0.377   0.122  -0.001
    1UNL     O5   17   0.387   0.228  -0.097
    1UNL    C13   18   0.472   0.009  -0.033
    1UNL     O6   19   0.501  -0.067   0.090
    1UNL    C14   20   0.410  -0.081  -0.146
    1UNL     O7   21   0.378  -0.009  -0.264
    1UNL    C15   22  -0.130  -0.099  -0.174
    1UNL    C16   23  -0.187   0.024  -0.102
    1UNL     H1   24  -0.488   0.047   0.183
    1UNL     H2   25  -0.412   0.190   0.279
    1UNL     H3   26  -0.352   0.019   0.287
    1UNL     H4   27  -0.209   0.155   0.151
    1UNL     H5   28  -0.309   0.256  -0.071
    1UNL     H6   29  -0.406   0.317   0.067
    1UNL     H7   30  -0.464   0.183  -0.029
    1UNL     H8   31  -0.449  -0.050  -0.068
    1UNL     H9   32  -0.174  -0.073   0.223
    1UNL    H10   33  -0.238  -0.205   0.116
    1UNL    H11   34   0.028  -0.188   0.105
    1UNL    H12   35   0.035  -0.322  -0.205
    1UNL    H13   36   0.107  -0.319  -0.058
    1UNL    H14   37   0.311  -0.247  -0.052
    1UNL    H15   38   0.171   0.102  -0.093
    1UNL    H16   39   0.032   0.145   0.067
    1UNL    H17   40   0.163   0.256   0.121
    1UNL    H18   41   0.187   0.004   0.221
    1UNL    H19   42   0.398   0.172   0.094
    1UNL    H20   43   0.419   0.202  -0.189
    1UNL    H21   44   0.571   0.049  -0.062
    1UNL    H22   45   0.414  -0.107   0.106
    1UNL    H23   46   0.485  -0.161  -0.179
    1UNL    H24   47   0.321  -0.061  -0.325
    1UNL    H25   48  -0.209  -0.168  -0.187
    1UNL    H26   49  -0.082  -0.066  -0.268
    1UNL    H27   50  -0.106   0.095  -0.074
    1UNL    H28   51  -0.254   0.075  -0.177
   0.00000   0.00000   0.00000   0.00000   0.00000   0.00000   0.00000   0.00000   0.00000
Generated with MDTraj, t= 77.0
 51
    1UNL     C1    1  -0.376   0.104   0.220
    1UNL     C2    2  -0.289   0.117   0.096
    1UNL     C3    3  -0.346   0.231   0.011
    1UNL     C4    4  -0.269  -0.024   0.022
    1UNL     O1    5  -0.396  -0.080   0.012
    1UNL     C5    6  -0.186  -0.126   0.108
    1UNL     C6    7  -0.070  -0.186   0.036
    1UNL     C7    8  -0.055  -0.195  -0.095
    1UNL     C8    9   0.070  -0.254  -0.154
    1UNL     O2   10   0.178  -0.165  -0.186
    1UNL     C9   11   0.276  -0.150  -0.082
    1UNL     O3   12   0.221  -0.070   0.021
    1UNL    C10   13   0.227   0.079  -0.008
    1UNL    C11   14   0.148   0.152   0.094
    1UNL     O4   15   0.191   0.126   0.226
    1UNL    C12   16   0.374   0.127   0.009
    1UNL     O5   17   0.391   0.234  -0.082
    1UNL    C13   18   0.466   0.008  -0.023
    1UNL     O6   19   0.485  -0.063   0.103
    1UNL    C14   20   0.405  -0.074  -0.137
    1UNL     O7   21   0.373   0.008  -0.245
    1UNL    C15   22  -0.165  -0.130  -0.185
    1UNL    C16   23  -0.203   0.006  -0.114
    1UNL     H1   24  -0.472   0.054   0.199
    1UNL     H2   25  -0.389   0.194   0.286
    1UNL     H3   26  -0.321   0.030   0.279
    1UNL     H4   27  -0.190   0.147   0.136
    1UNL     H5   28  -0.281   0.245  -0.076
    1UNL     H6   29  -0.349   0.327   0.074
    1UNL     H7   30  -0.441   0.209  -0.012
    1UNL     H8   31  -0.454  -0.033  -0.046
    1UNL     H9   32  -0.142  -0.080   0.201
    1UNL    H10   33  -0.257  -0.205   0.146
    1UNL    H11   34   0.016  -0.229   0.080
    1UNL    H12   35   0.051  -0.321  -0.242
    1UNL    H13   36   0.094  -0.333  -0.082
    1UNL    H14   37   0.306  -0.251  -0.041
    1UNL    H15   38   0.189   0.104  -0.108
    1UNL    H16   39   0.040   0.139   0.098
    1UNL    H17   40   0.177   0.265   0.073
    1UNL    H18   41   0.220   0.031   0.222
    1UNL    H19   42   0.401   0.167   0.109
    1UNL    H20   43   0.367   0.206  -0.171
    1UNL    H21   44   0.574   0.038  -0.033
    1UNL    H22   45   0.393  -0.098   0.120
    1UNL    H23   46   0.471  -0.159  -0.170
    1UNL    H24   47   0.292  -0.026  -0.292
    1UNL    H25   48  -0.256  -0.185  -0.189
    1UNL    H26   49  -0.125  -0.095  -0.282
    1UNL    H27   50  -0.110   0.066  -0.101
    1UNL    H28   51  -0.273   0.055  -0.187
   0.00000   0.00000   0.00000   0.00000   0.00000   0.00000   0.00000   0.00000   0.00000
Generated with MDTraj, t= 78.0
 51
    1UNL     C1    1  -0.341   0.085   0.216
    1UNL     C2    2  -0.267   0.114   0.086
    1UNL     C3    3  -0.347   0.230   0.009
    1UNL     C4    4  -0.256  -0.021   0.014
    1UNL     O1    5  -0.380  -0.085   0.005
    1UNL     C5    6  -0.167  -0.114   0.100
    1UNL     C6    7  -0.057  -0.186   0.031
    1UNL     C7    8  -0.054  -0.202  -0.098
    1UNL     C8    9   0.076  -0.255  -0.161
    1UNL     O2   10   0.159  -0.148  -0.186
    1UNL     C9   11   0.246  -0.129  -0.078
    1UNL     O3   12   0.196  -0.059   0.035
    1UNL    C10   13   0.212   0.084   0.013
    1UNL    C11   14   0.132   0.170   0.118
    1UNL     O4   15   0.188   0.154   0.249
    1UNL    C12   16   0.365   0.114   0.013
    1UNL     O5   17   0.379   0.221  -0.083
    1UNL    C13   18   0.463   0.003  -0.024
    1UNL     O6   19   0.502  -0.073   0.088
    1UNL    C14   20   0.390  -0.084  -0.128
    1UNL     O7   21   0.370  -0.017  -0.257
    1UNL    C15   22  -0.159  -0.136  -0.188
    1UNL    C16   23  -0.197   0.008  -0.124
    1UNL     H1   24  -0.443   0.053   0.196
    1UNL     H2   25  -0.352   0.171   0.285
    1UNL     H3   26  -0.305   0.004   0.285
    1UNL     H4   27  -0.166   0.149   0.112
    1UNL     H5   28  -0.291   0.251  -0.085
    1UNL     H6   29  -0.350   0.319   0.066
    1UNL     H7   30  -0.448   0.200  -0.009
    1UNL     H8   31  -0.438  -0.030  -0.047
    1UNL     H9   32  -0.127  -0.061   0.189
    1UNL    H10   33  -0.242  -0.188   0.147
    1UNL    H11   34   0.037  -0.227   0.072
    1UNL    H12   35   0.050  -0.304  -0.258
    1UNL    H13   36   0.122  -0.341  -0.107
    1UNL    H14   37   0.259  -0.231  -0.028
    1UNL    H15   38   0.168   0.105  -0.084
    1UNL    H16   39   0.031   0.129   0.114
    1UNL    H17   40   0.138   0.289   0.109
    1UNL    H18   41   0.224   0.058   0.257
    1UNL    H19   42   0.395   0.156   0.113
    1UNL    H20   43   0.354   0.185  -0.176
    1UNL    H21   44   0.560   0.038  -0.071
    1UNL    H22   45   0.423  -0.117   0.119
    1UNL    H23   46   0.449  -0.172  -0.163
    1UNL    H24   47   0.289  -0.046  -0.304
    1UNL    H25   48  -0.247  -0.195  -0.178
    1UNL    H26   49  -0.123  -0.122  -0.291
    1UNL    H27   50  -0.098   0.059  -0.116
    1UNL    H28   51  -0.271   0.063  -0.191
   0.00000   0.00000   0.00000   0.00000   0.00000   0.00000   0.00000   0.00000   0.00000
Generated with MDTraj, t= 79.0
 51
    1UNL     C1    1  -0.345   0.100   0.227
    1UNL     C2    2  -0.284   0.127   0.087
    1UNL     C3    3  -0.370   0.218   0.005
    1UNL     C4    4  -0.255  -0.014   0.027
    1UNL     O1    5  -0.381  -0.083   0.012
    1UNL     C5    6  -0.166  -0.111   0.111
    1UNL     C6    7  -0.059  -0.186   0.031
    1UNL     C7    8  -0.044  -0.182  -0.100
    1UNL     C8    9   0.070  -0.251  -0.168
    1UNL     O2   10   0.178  -0.168  -0.192
    1UNL     C9   11   0.265  -0.146  -0.080
    1UNL     O3   12   0.210  -0.066   0.024
    1UNL    C10   13   0.219   0.078   0.003
    1UNL    C11   14   0.132   0.143   0.109
    1UNL     O4   15   0.190   0.115   0.233
    1UNL    C12   16   0.363   0.125   0.001
    1UNL     O5   17   0.387   0.222  -0.108
    1UNL    C13   18   0.460   0.008  -0.013
    1UNL     O6   19   0.469  -0.058   0.115
    1UNL    C14   20   0.393  -0.077  -0.128
    1UNL     O7   21   0.364  -0.000  -0.248
    1UNL    C15   22  -0.155  -0.122  -0.185
    1UNL    C16   23  -0.186   0.013  -0.114
    1UNL     H1   24  -0.436   0.041   0.214
    1UNL     H2   25  -0.368   0.194   0.279
    1UNL     H3   26  -0.278   0.044   0.298
    1UNL     H4   27  -0.189   0.180   0.105
    1UNL     H5   28  -0.314   0.252  -0.080
    1UNL     H6   29  -0.403   0.299   0.054
    1UNL     H7   30  -0.468   0.169  -0.032
    1UNL     H8   31  -0.440  -0.036  -0.048
    1UNL     H9   32  -0.131  -0.054   0.198
    1UNL    H10   33  -0.235  -0.193   0.157
    1UNL    H11   34   0.015  -0.240   0.085
    1UNL    H12   35   0.039  -0.297  -0.266
    1UNL    H13   36   0.087  -0.338  -0.101
    1UNL    H14   37   0.293  -0.243  -0.028
    1UNL    H15   38   0.175   0.105  -0.094
    1UNL    H16   39   0.030   0.105   0.118
    1UNL    H17   40   0.143   0.259   0.089
    1UNL    H18   41   0.235   0.025   0.239
    1UNL    H19   42   0.380   0.180   0.099
    1UNL    H20   43   0.426   0.179  -0.184
    1UNL    H21   44   0.563   0.048  -0.038
    1UNL    H22   45   0.382  -0.092   0.151
    1UNL    H23   46   0.465  -0.153  -0.157
    1UNL    H24   47   0.297  -0.046  -0.305
    1UNL    H25   48  -0.244  -0.183  -0.185
    1UNL    H26   49  -0.117  -0.100  -0.284
    1UNL    H27   50  -0.088   0.063  -0.092
    1UNL    H28   51  -0.243   0.071  -0.190
   0.00000   0.00000   0.00000   0.00000   0.00000   0.00000   0.00000   0.00000   0.00000
Generated with MDTraj, t= 80.0
 51
    1UNL     C1    1  -0.367   0.087   0.232
    1UNL     C2    2  -0.304   0.132   0.096
    1UNL     C3    3  -0.396   0.223   0.022
    1UNL     C4    4  -0.261  -0.002   0.022
    1UNL     O1    5  -0.373  -0.093   0.006
    1UNL     C5    6  -0.160  -0.079   0.111
    1UNL     C6    7  -0.054  -0.164   0.046
    1UNL     C7    8  -0.039  -0.170  -0.084
    1UNL     C8    9   0.072  -0.251  -0.142
    1UNL     O2   10   0.195  -0.186  -0.191
    1UNL     C9   11   0.286  -0.155  -0.088
    1UNL     O3   12   0.218  -0.080   0.026
    1UNL    C10   13   0.214   0.066  -0.007
    1UNL    C11   14   0.123   0.140   0.094
    1UNL     O4   15   0.140   0.086   0.228
    1UNL    C12   16   0.355   0.128   0.001
    1UNL     O5   17   0.374   0.230  -0.093
    1UNL    C13   18   0.467   0.013  -0.030
    1UNL     O6   19   0.482  -0.059   0.092
    1UNL    C14   20   0.412  -0.083  -0.141
    1UNL     O7   21   0.395  -0.027  -0.264
    1UNL    C15   22  -0.126  -0.085  -0.176
    1UNL    C16   23  -0.187   0.036  -0.111
    1UNL     H1   24  -0.454   0.023   0.206
    1UNL     H2   25  -0.398   0.174   0.290
    1UNL     H3   26  -0.295   0.030   0.296
    1UNL     H4   27  -0.211   0.188   0.116
    1UNL     H5   28  -0.353   0.247  -0.067
    1UNL     H6   29  -0.423   0.314   0.076
    1UNL     H7   30  -0.497   0.172   0.008
    1UNL     H8   31  -0.456  -0.043  -0.021
    1UNL     H9   32  -0.111  -0.008   0.180
    1UNL    H10   33  -0.223  -0.151   0.177
    1UNL    H11   34   0.006  -0.225   0.113
    1UNL    H12   35   0.019  -0.309  -0.221
    1UNL    H13   36   0.107  -0.333  -0.076
    1UNL    H14   37   0.318  -0.251  -0.043
    1UNL    H15   38   0.178   0.069  -0.111
    1UNL    H16   39   0.022   0.117   0.064
    1UNL    H17   40   0.149   0.254   0.103
    1UNL    H18   41   0.133  -0.010   0.233
    1UNL    H19   42   0.380   0.175   0.104
    1UNL    H20   43   0.357   0.176  -0.179
    1UNL    H21   44   0.559   0.066  -0.065
    1UNL    H22   45   0.396  -0.095   0.122
    1UNL    H23   46   0.488  -0.160  -0.147
    1UNL    H24   47   0.328  -0.084  -0.308
    1UNL    H25   48  -0.209  -0.150  -0.199
    1UNL    H26   49  -0.072  -0.056  -0.267
    1UNL    H27   50  -0.107   0.114  -0.091
    1UNL    H28   51  -0.265   0.079  -0.180
   0.00000   0.00000   0.00000   0.00000   0.00000   0.00000   0.00000   0.00000   0.00000
Generated with MDTraj, t= 81.0
 51
    1UNL     C1    1  -0.390   0.070   0.228
    1UNL     C2    2  -0.323   0.127   0.103
    1UNL     C3    3  -0.421   0.211   0.008
    1UNL     C4    4  -0.261   0.004   0.031
    1UNL     O1    5  -0.364  -0.091  -0.012
    1UNL     C5    6  -0.155  -0.069   0.127
    1UNL     C6    7  -0.059  -0.153   0.050
    1UNL     C7    8  -0.041  -0.144  -0.080
    1UNL     C8    9   0.064  -0.233  -0.136
    1UNL     O2   10   0.189  -0.175  -0.180
    1UNL     C9   11   0.288  -0.162  -0.073
    1UNL     O3   12   0.233  -0.083   0.041
    1UNL    C10   13   0.222   0.050  -0.001
    1UNL    C11   14   0.129   0.131   0.088
    1UNL     O4   15   0.110   0.075   0.211
    1UNL    C12   16   0.361   0.113  -0.015
    1UNL     O5   17   0.370   0.214  -0.110
    1UNL    C13   18   0.478   0.012  -0.034
    1UNL     O6   19   0.528  -0.057   0.082
    1UNL    C14   20   0.415  -0.094  -0.136
    1UNL     O7   21   0.375  -0.025  -0.259
    1UNL    C15   22  -0.109  -0.052  -0.168
    1UNL    C16   23  -0.192   0.052  -0.099
    1UNL     H1   24  -0.472   0.000   0.198
    1UNL     H2   25  -0.436   0.152   0.286
    1UNL     H3   26  -0.327   0.019   0.303
    1UNL     H4   27  -0.235   0.188   0.127
    1UNL     H5   28  -0.364   0.252  -0.070
    1UNL     H6   29  -0.482   0.291   0.065
    1UNL     H7   30  -0.497   0.146  -0.027
    1UNL     H8   31  -0.341  -0.189   0.007
    1UNL     H9   32  -0.090  -0.000   0.187
    1UNL    H10   33  -0.216  -0.130   0.202
    1UNL    H11   34  -0.003  -0.218   0.117
    1UNL    H12   35   0.027  -0.284  -0.228
    1UNL    H13   36   0.080  -0.319  -0.069
    1UNL    H14   37   0.313  -0.257  -0.025
    1UNL    H15   38   0.187   0.048  -0.108
    1UNL    H16   39   0.028   0.154   0.044
    1UNL    H17   40   0.190   0.223   0.115
    1UNL    H18   41   0.164  -0.011   0.213
    1UNL    H19   42   0.387   0.162   0.086
    1UNL    H20   43   0.390   0.178  -0.195
    1UNL    H21   44   0.552   0.051  -0.104
    1UNL    H22   45   0.460  -0.115   0.117
    1UNL    H23   46   0.495  -0.163  -0.161
    1UNL    H24   47   0.326  -0.091  -0.313
    1UNL    H25   48  -0.167  -0.114  -0.233
    1UNL    H26   49  -0.031  -0.013  -0.235
    1UNL    H27   50  -0.131   0.144  -0.066
    1UNL    H28   51  -0.275   0.101  -0.155
   0.00000   0.00000   0.00000   0.00000   0.00000   0.00000   0.00000   0.00000   0.00000
Generated with MDTraj, t= 82.0
 51
    1UNL     C1    1  -0.420   0.070   0.218
    1UNL     C2    2  -0.354   0.123   0.093
    1UNL     C3    3  -0.453   0.175  -0.004
    1UNL     C4    4  -0.270   0.012   0.027
    1UNL     O1    5  -0.353  -0.101  -0.018
    1UNL     C5    6  -0.164  -0.055   0.127
    1UNL     C6    7  -0.063  -0.152   0.069
    1UNL     C7    8  -0.035  -0.139  -0.060
    1UNL     C8    9   0.064  -0.233  -0.128
    1UNL     O2   10   0.180  -0.172  -0.179
    1UNL     C9   11   0.277  -0.153  -0.080
    1UNL     O3   12   0.230  -0.075   0.020
    1UNL    C10   13   0.233   0.068  -0.006
    1UNL    C11   14   0.154   0.140   0.113
    1UNL     O4   15   0.154   0.053   0.227
    1UNL    C12   16   0.374   0.121  -0.015
    1UNL     O5   17   0.400   0.219  -0.114
    1UNL    C13   18   0.476  -0.001  -0.045
    1UNL     O6   19   0.508  -0.063   0.073
    1UNL    C14   20   0.413  -0.104  -0.143
    1UNL     O7   21   0.385  -0.034  -0.269
    1UNL    C15   22  -0.101  -0.042  -0.154
    1UNL    C16   23  -0.184   0.069  -0.090
    1UNL     H1   24  -0.505  -0.001   0.200
    1UNL     H2   25  -0.462   0.154   0.278
    1UNL     H3   26  -0.350   0.021   0.284
    1UNL     H4   27  -0.282   0.202   0.120
    1UNL     H5   28  -0.402   0.219  -0.095
    1UNL     H6   29  -0.522   0.253   0.044
    1UNL     H7   30  -0.523   0.108  -0.031
    1UNL     H8   31  -0.373  -0.158   0.063
    1UNL     H9   32  -0.121   0.034   0.183
    1UNL    H10   33  -0.219  -0.109   0.208
    1UNL    H11   34  -0.020  -0.222   0.137
    1UNL    H12   35   0.010  -0.291  -0.202
    1UNL    H13   36   0.102  -0.311  -0.062
    1UNL    H14   37   0.295  -0.248  -0.035
    1UNL    H15   38   0.183   0.079  -0.106
    1UNL    H16   39   0.048   0.166   0.095
    1UNL    H17   40   0.206   0.231   0.148
    1UNL    H18   41   0.172  -0.033   0.185
    1UNL    H19   42   0.399   0.170   0.088
    1UNL    H20   43   0.382   0.171  -0.198
    1UNL    H21   44   0.563   0.047  -0.086
    1UNL    H22   45   0.426  -0.090   0.126
    1UNL    H23   46   0.483  -0.190  -0.141
    1UNL    H24   47   0.338  -0.101  -0.323
    1UNL    H25   48  -0.155  -0.093  -0.233
    1UNL    H26   49  -0.023   0.005  -0.215
    1UNL    H27   50  -0.136   0.165  -0.050
    1UNL    H28   51  -0.262   0.112  -0.159
   0.00000   0.00000   0.00000   0.00000   0.00000   0.00000   0.00000   0.00000   0.00000
Generated with MDTraj, t= 83.0
 51
    1UNL     C1    1  -0.441   0.057   0.215
    1UNL     C2    2  -0.374   0.117   0.086
    1UNL     C3    3  -0.486   0.145  -0.012
    1UNL     C4    4  -0.276   0.008   0.025
    1UNL     O1    5  -0.357  -0.093  -0.029
    1UNL     C5    6  -0.174  -0.052   0.130
    1UNL     C6    7  -0.080  -0.138   0.063
    1UNL     C7    8  -0.037  -0.128  -0.065
    1UNL     C8    9   0.065  -0.231  -0.122
    1UNL     O2   10   0.175  -0.172  -0.179
    1UNL     C9   11   0.279  -0.155  -0.078
    1UNL     O3   12   0.233  -0.081   0.039
    1UNL    C10   13   0.241   0.059   0.009
    1UNL    C11   14   0.175   0.144   0.123
    1UNL     O4   15   0.238   0.114   0.253
    1UNL    C12   16   0.387   0.108  -0.014
    1UNL     O5   17   0.395   0.213  -0.110
    1UNL    C13   18   0.479  -0.017  -0.052
    1UNL     O6   19   0.501  -0.093   0.063
    1UNL    C14   20   0.406  -0.099  -0.153
    1UNL     O7   21   0.366  -0.023  -0.269
    1UNL    C15   22  -0.090  -0.029  -0.160
    1UNL    C16   23  -0.184   0.070  -0.091
    1UNL     H1   24  -0.491  -0.040   0.192
    1UNL     H2   25  -0.523   0.129   0.243
    1UNL     H3   26  -0.372   0.043   0.297
    1UNL     H4   27  -0.312   0.205   0.110
    1UNL     H5   28  -0.452   0.197  -0.108
    1UNL     H6   29  -0.569   0.207   0.027
    1UNL     H7   30  -0.546   0.056  -0.041
    1UNL     H8   31  -0.298  -0.155  -0.077
    1UNL     H9   32  -0.128   0.037   0.187
    1UNL    H10   33  -0.224  -0.099   0.218
    1UNL    H11   34  -0.050  -0.220   0.130
    1UNL    H12   35   0.014  -0.278  -0.204
    1UNL    H13   36   0.084  -0.315  -0.055
    1UNL    H14   37   0.305  -0.255  -0.052
    1UNL    H15   38   0.178   0.072  -0.083
    1UNL    H16   39   0.070   0.118   0.125
    1UNL    H17   40   0.184   0.251   0.124
    1UNL    H18   41   0.252   0.015   0.249
    1UNL    H19   42   0.420   0.157   0.087
    1UNL    H20   43   0.393   0.178  -0.206
    1UNL    H21   44   0.574   0.009  -0.096
    1UNL    H22   45   0.424  -0.129   0.107
    1UNL    H23   46   0.475  -0.183  -0.184
    1UNL    H24   47   0.305  -0.085  -0.317
    1UNL    H25   48  -0.152  -0.071  -0.239
    1UNL    H26   49  -0.012   0.026  -0.212
    1UNL    H27   50  -0.122   0.147  -0.036
    1UNL    H28   51  -0.247   0.128  -0.169
   0.00000   0.00000   0.00000   0.00000   0.00000   0.00000   0.00000   0.00000   0.00000
Generated with MDTraj, t= 84.0
 51
    1UNL     C1    1  -0.467   0.049   0.204
    1UNL     C2    2  -0.396   0.102   0.082
    1UNL     C3    3  -0.493   0.155  -0.022
    1UNL     C4    4  -0.292   0.004   0.016
    1UNL     O1    5  -0.371  -0.113  -0.025
    1UNL     C5    6  -0.189  -0.048   0.120
    1UNL     C6    7  -0.091  -0.140   0.063
    1UNL     C7    8  -0.042  -0.119  -0.059
    1UNL     C8    9   0.056  -0.224  -0.125
    1UNL     O2   10   0.168  -0.164  -0.176
    1UNL     C9   11   0.277  -0.161  -0.077
    1UNL     O3   12   0.245  -0.087   0.041
    1UNL    C10   13   0.255   0.055   0.025
    1UNL    C11   14   0.201   0.128   0.141
    1UNL     O4   15   0.293   0.149   0.244
    1UNL    C12   16   0.395   0.103  -0.009
    1UNL     O5   17   0.407   0.205  -0.102
    1UNL    C13   18   0.487  -0.021  -0.058
    1UNL     O6   19   0.545  -0.090   0.053
    1UNL    C14   20   0.399  -0.104  -0.150
    1UNL     O7   21   0.353  -0.020  -0.254
    1UNL    C15   22  -0.093  -0.012  -0.154
    1UNL    C16   23  -0.222   0.070  -0.107
    1UNL     H1   24  -0.501  -0.055   0.191
    1UNL     H2   25  -0.560   0.105   0.231
    1UNL     H3   26  -0.402   0.050   0.292
    1UNL     H4   27  -0.329   0.186   0.111
    1UNL     H5   28  -0.432   0.214  -0.095
    1UNL     H6   29  -0.572   0.214   0.020
    1UNL     H7   30  -0.552   0.062  -0.078
    1UNL     H8   31  -0.335  -0.150  -0.105
    1UNL     H9   32  -0.125   0.031   0.174
    1UNL    H10   33  -0.251  -0.088   0.202
    1UNL    H11   34  -0.065  -0.226   0.117
    1UNL    H12   35  -0.000  -0.262  -0.210
    1UNL    H13   36   0.075  -0.317  -0.072
    1UNL    H14   37   0.297  -0.265  -0.054
    1UNL    H15   38   0.192   0.086  -0.061
    1UNL    H16   39   0.123   0.086   0.202
    1UNL    H17   40   0.168   0.222   0.109
    1UNL    H18   41   0.331   0.071   0.281
    1UNL    H19   42   0.446   0.141   0.088
    1UNL    H20   43   0.373   0.175  -0.186
    1UNL    H21   44   0.572   0.004  -0.122
    1UNL    H22   45   0.464  -0.119   0.108
    1UNL    H23   46   0.464  -0.176  -0.207
    1UNL    H24   47   0.270  -0.061  -0.288
    1UNL    H25   48  -0.110  -0.068  -0.248
    1UNL    H26   49  -0.016   0.064  -0.169
    1UNL    H27   50  -0.176   0.168  -0.077
    1UNL    H28   51  -0.297   0.086  -0.193
   0.00000   0.00000   0.00000   0.00000   0.00000   0.00000   0.00000   0.00000   0.00000
Generated with MDTraj, t= 85.0
 51
    1UNL     C1    1  -0.498   0.036   0.184
    1UNL     C2    2  -0.413   0.101   0.074
    1UNL     C3    3  -0.504   0.166  -0.033
    1UNL     C4    4  -0.307  -0.001   0.015
    1UNL     O1    5  -0.371  -0.117  -0.044
    1UNL     C5    6  -0.212  -0.038   0.134
    1UNL     C6    7  -0.096  -0.113   0.086
    1UNL     C7    8  -0.052  -0.117  -0.040
    1UNL     C8    9   0.063  -0.198  -0.088
    1UNL     O2   10   0.163  -0.135  -0.163
    1UNL     C9   11   0.283  -0.140  -0.086
    1UNL     O3   12   0.264  -0.079   0.035
    1UNL    C10   13   0.277   0.059   0.025
    1UNL    C11   14   0.220   0.133   0.149
    1UNL     O4   15   0.299   0.100   0.269
    1UNL    C12   16   0.415   0.106  -0.011
    1UNL     O5   17   0.416   0.210  -0.114
    1UNL    C13   18   0.497  -0.023  -0.070
    1UNL     O6   19   0.548  -0.096   0.042
    1UNL    C14   20   0.407  -0.102  -0.167
    1UNL     O7   21   0.372  -0.026  -0.278
    1UNL    C15   22  -0.130  -0.053  -0.158
    1UNL    C16   23  -0.222   0.059  -0.096
    1UNL     H1   24  -0.552  -0.052   0.151
    1UNL     H2   25  -0.578   0.106   0.216
    1UNL     H3   26  -0.441   0.010   0.276
    1UNL     H4   27  -0.358   0.187   0.116
    1UNL     H5   28  -0.443   0.236  -0.098
    1UNL     H6   29  -0.580   0.218   0.031
    1UNL     H7   30  -0.560   0.086  -0.087
    1UNL     H8   31  -0.340  -0.198  -0.005
    1UNL     H9   32  -0.185   0.059   0.190
    1UNL    H10   33  -0.258  -0.096   0.216
    1UNL    H11   34  -0.049  -0.179   0.163
    1UNL    H12   35   0.029  -0.287  -0.143
    1UNL    H13   36   0.107  -0.246   0.001
    1UNL    H14   37   0.290  -0.246  -0.054
    1UNL    H15   38   0.213   0.087  -0.059
    1UNL    H16   39   0.115   0.107   0.154
    1UNL    H17   40   0.233   0.239   0.149
    1UNL    H18   41   0.289   0.007   0.284
    1UNL    H19   42   0.466   0.153   0.080
    1UNL    H20   43   0.408   0.158  -0.202
    1UNL    H21   44   0.587   0.017  -0.120
    1UNL    H22   45   0.469  -0.111   0.094
    1UNL    H23   46   0.460  -0.193  -0.201
    1UNL    H24   47   0.282  -0.060  -0.299
    1UNL    H25   48  -0.189  -0.132  -0.209
    1UNL    H26   49  -0.049  -0.027  -0.224
    1UNL    H27   50  -0.166   0.153  -0.067
    1UNL    H28   51  -0.289   0.094  -0.184
   0.00000   0.00000   0.00000   0.00000   0.00000   0.00000   0.00000   0.00000   0.00000
Generated with MDTraj, t= 86.0
 51
    1UNL     C1    1  -0.528   0.061   0.174
    1UNL     C2    2  -0.427   0.107   0.063
    1UNL     C3    3  -0.508   0.156  -0.057
    1UNL     C4    4  -0.324  -0.003   0.016
    1UNL     O1    5  -0.398  -0.123  -0.021
    1UNL     C5    6  -0.222  -0.033   0.131
    1UNL     C6    7  -0.100  -0.107   0.088
    1UNL     C7    8  -0.051  -0.118  -0.034
    1UNL     C8    9   0.065  -0.205  -0.065
    1UNL     O2   10   0.164  -0.145  -0.149
    1UNL     C9   11   0.298  -0.152  -0.084
    1UNL     O3   12   0.288  -0.082   0.044
    1UNL    C10   13   0.301   0.059   0.029
    1UNL    C11   14   0.254   0.126   0.163
    1UNL     O4   15   0.295   0.050   0.276
    1UNL    C12   16   0.431   0.110  -0.027
    1UNL     O5   17   0.415   0.217  -0.122
    1UNL    C13   18   0.513  -0.006  -0.081
    1UNL     O6   19   0.568  -0.086   0.025
    1UNL    C14   20   0.417  -0.092  -0.174
    1UNL     O7   21   0.351  -0.007  -0.269
    1UNL    C15   22  -0.131  -0.045  -0.147
    1UNL    C16   23  -0.245   0.049  -0.102
    1UNL     H1   24  -0.599  -0.009   0.130
    1UNL     H2   25  -0.587   0.148   0.204
    1UNL     H3   26  -0.476   0.017   0.264
    1UNL     H4   27  -0.374   0.195   0.104
    1UNL     H5   28  -0.452   0.226  -0.126
    1UNL     H6   29  -0.607   0.208  -0.023
    1UNL     H7   30  -0.541   0.079  -0.112
    1UNL     H8   31  -0.356  -0.166  -0.099
    1UNL     H9   32  -0.189   0.059   0.187
    1UNL    H10   33  -0.267  -0.095   0.211
    1UNL    H11   34  -0.058  -0.171   0.159
    1UNL    H12   35   0.036  -0.302  -0.111
    1UNL    H13   36   0.119  -0.241   0.026
    1UNL    H14   37   0.310  -0.261  -0.055
    1UNL    H15   38   0.229   0.090  -0.045
    1UNL    H16   39   0.143   0.139   0.164
    1UNL    H17   40   0.306   0.221   0.161
    1UNL    H18   41   0.246  -0.039   0.249
    1UNL    H19   42   0.475   0.162   0.064
    1UNL    H20   43   0.374   0.185  -0.201
    1UNL    H21   44   0.603   0.031  -0.137
    1UNL    H22   45   0.501  -0.098   0.099
    1UNL    H23   46   0.478  -0.165  -0.230
    1UNL    H24   47   0.270  -0.058  -0.298
    1UNL    H25   48  -0.164  -0.138  -0.198
    1UNL    H26   49  -0.058  -0.004  -0.216
    1UNL    H27   50  -0.204   0.154  -0.086
    1UNL    H28   51  -0.301   0.058  -0.201
   0.00000   0.00000   0.00000   0.00000   0.00000   0.00000   0.00000   0.00000   0.00000
Generated with MDTraj, t= 87.0
 51
    1UNL     C1    1  -0.497   0.073   0.163
    1UNL     C2    2  -0.424   0.109   0.037
    1UNL     C3    3  -0.513   0.133  -0.077
    1UNL     C4    4  -0.319  -0.000   0.002
    1UNL     O1    5  -0.405  -0.116  -0.031
    1UNL     C5    6  -0.227  -0.020   0.127
    1UNL     C6    7  -0.110  -0.108   0.104
    1UNL     C7    8  -0.059  -0.120  -0.017
    1UNL     C8    9   0.062  -0.202  -0.041
    1UNL     O2   10   0.159  -0.131  -0.131
    1UNL     C9   11   0.288  -0.145  -0.081
    1UNL     O3   12   0.302  -0.093   0.057
    1UNL    C10   13   0.296   0.057   0.044
    1UNL    C11   14   0.254   0.108   0.180
    1UNL     O4   15   0.333   0.052   0.281
    1UNL    C12   16   0.429   0.111  -0.008
    1UNL     O5   17   0.403   0.223  -0.085
    1UNL    C13   18   0.492  -0.005  -0.100
    1UNL     O6   19   0.574  -0.090  -0.026
    1UNL    C14   20   0.386  -0.086  -0.180
    1UNL     O7   21   0.324  -0.001  -0.276
    1UNL    C15   22  -0.108  -0.045  -0.138
    1UNL    C16   23  -0.233   0.031  -0.122
    1UNL     H1   24  -0.538  -0.030   0.155
    1UNL     H2   25  -0.582   0.139   0.178
    1UNL     H3   26  -0.431   0.083   0.252
    1UNL     H4   27  -0.370   0.204   0.058
    1UNL     H5   28  -0.455   0.158  -0.167
    1UNL     H6   29  -0.593   0.216  -0.074
    1UNL     H7   30  -0.569   0.046  -0.107
    1UNL     H8   31  -0.340  -0.192  -0.046
    1UNL     H9   32  -0.175   0.073   0.159
    1UNL    H10   33  -0.289  -0.051   0.215
    1UNL    H11   34  -0.067  -0.170   0.187
    1UNL    H12   35   0.051  -0.309  -0.070
    1UNL    H13   36   0.123  -0.206   0.053
    1UNL    H14   37   0.300  -0.258  -0.066
    1UNL    H15   38   0.215   0.066  -0.026
    1UNL    H16   39   0.147   0.073   0.204
    1UNL    H17   40   0.271   0.217   0.194
    1UNL    H18   41   0.330  -0.042   0.271
    1UNL    H19   42   0.502   0.148   0.068
    1UNL    H20   43   0.361   0.185  -0.169
    1UNL    H21   44   0.563   0.039  -0.178
    1UNL    H22   45   0.519  -0.118   0.050
    1UNL    H23   46   0.433  -0.162  -0.244
    1UNL    H24   47   0.259  -0.053  -0.326
    1UNL    H25   48  -0.120  -0.124  -0.217
    1UNL    H26   49  -0.020   0.008  -0.174
    1UNL    H27   50  -0.187   0.136  -0.138
    1UNL    H28   51  -0.301   0.015  -0.210
   0.00000   0.00000   0.00000   0.00000   0.00000   0.00000   0.00000   0.00000   0.00000
Generated with MDTraj, t= 88.0
 51
    1UNL     C1    1  -0.510   0.101   0.148
    1UNL     C2    2  -0.430   0.120   0.016
    1UNL     C3    3  -0.527   0.099  -0.109
    1UNL     C4    4  -0.317   0.010  -0.003
    1UNL     O1    5  -0.384  -0.112  -0.041
    1UNL     C5    6  -0.230  -0.006   0.126
    1UNL     C6    7  -0.107  -0.088   0.109
    1UNL     C7    8  -0.053  -0.114  -0.011
    1UNL     C8    9   0.067  -0.203  -0.019
    1UNL     O2   10   0.164  -0.167  -0.123
    1UNL     C9   11   0.296  -0.153  -0.087
    1UNL     O3   12   0.307  -0.111   0.050
    1UNL    C10   13   0.288   0.033   0.051
    1UNL    C11   14   0.272   0.068   0.198
    1UNL     O4   15   0.393   0.054   0.267
    1UNL    C12   16   0.416   0.102  -0.011
    1UNL     O5   17   0.378   0.223  -0.071
    1UNL    C13   18   0.491   0.010  -0.107
    1UNL     O6   19   0.577  -0.080  -0.039
    1UNL    C14   20   0.378  -0.062  -0.184
    1UNL     O7   21   0.281   0.024  -0.242
    1UNL    C15   22  -0.120  -0.065  -0.135
    1UNL    C16   23  -0.218   0.055  -0.114
    1UNL     H1   24  -0.569   0.006   0.152
    1UNL     H2   25  -0.591   0.174   0.154
    1UNL     H3   26  -0.457   0.112   0.242
    1UNL     H4   27  -0.396   0.226   0.009
    1UNL     H5   28  -0.478   0.094  -0.204
    1UNL     H6   29  -0.603   0.176  -0.107
    1UNL     H7   30  -0.589  -0.002  -0.094
    1UNL     H8   31  -0.362  -0.190   0.022
    1UNL     H9   32  -0.210   0.091   0.170
    1UNL    H10   33  -0.296  -0.056   0.203
    1UNL    H11   34  -0.065  -0.134   0.193
    1UNL    H12   35   0.028  -0.299  -0.061
    1UNL    H13   36   0.121  -0.224   0.078
    1UNL    H14   37   0.340  -0.257  -0.084
    1UNL    H15   38   0.196   0.044  -0.005
    1UNL    H16   39   0.197   0.006   0.259
    1UNL    H17   40   0.269   0.180   0.218
    1UNL    H18   41   0.441  -0.035   0.258
    1UNL    H19   42   0.488   0.140   0.062
    1UNL    H20   43   0.309   0.196  -0.141
    1UNL    H21   44   0.561   0.070  -0.175
    1UNL    H22   45   0.526  -0.132   0.030
    1UNL    H23   46   0.424  -0.116  -0.268
    1UNL    H24   47   0.216  -0.026  -0.299
    1UNL    H25   48  -0.174  -0.144  -0.194
    1UNL    H26   49  -0.051  -0.032  -0.210
    1UNL    H27   50  -0.161   0.152  -0.082
    1UNL    H28   51  -0.255   0.075  -0.218
   0.00000   0.00000   0.00000   0.00000   0.00000   0.00000   0.00000   0.00000   0.00000
Generated with MDTraj, t= 89.0
 51
    1UNL     C1    1  -0.507   0.110   0.125
    1UNL     C2    2  -0.425   0.118  -0.004
    1UNL     C3    3  -0.512   0.102  -0.130
    1UNL     C4    4  -0.321   0.010  -0.014
    1UNL     O1    5  -0.362  -0.129  -0.030
    1UNL     C5    6  -0.229   0.017   0.120
    1UNL     C6    7  -0.110  -0.075   0.118
    1UNL     C7    8  -0.054  -0.109   0.002
    1UNL     C8    9   0.070  -0.194  -0.005
    1UNL     O2   10   0.150  -0.155  -0.116
    1UNL     C9   11   0.281  -0.146  -0.082
    1UNL     O3   12   0.325  -0.113   0.053
    1UNL    C10   13   0.301   0.028   0.079
    1UNL    C11   14   0.305   0.058   0.233
    1UNL     O4   15   0.434   0.014   0.285
    1UNL    C12   16   0.404   0.105  -0.006
    1UNL     O5   17   0.342   0.221  -0.063
    1UNL    C13   18   0.465   0.026  -0.116
    1UNL     O6   19   0.561  -0.065  -0.066
    1UNL    C14   20   0.356  -0.056  -0.189
    1UNL     O7   21   0.264   0.021  -0.264
    1UNL    C15   22  -0.103  -0.078  -0.132
    1UNL    C16   23  -0.223   0.031  -0.127
    1UNL     H1   24  -0.564   0.015   0.134
    1UNL     H2   25  -0.582   0.189   0.138
    1UNL     H3   26  -0.438   0.118   0.207
    1UNL     H4   27  -0.383   0.221  -0.007
    1UNL     H5   28  -0.453   0.133  -0.217
    1UNL     H6   29  -0.600   0.159  -0.108
    1UNL     H7   30  -0.545  -0.008  -0.134
    1UNL     H8   31  -0.427  -0.145   0.045
    1UNL     H9   32  -0.205   0.122   0.134
    1UNL    H10   33  -0.294   0.000   0.210
    1UNL    H11   34  -0.062  -0.117   0.208
    1UNL    H12   35   0.045  -0.301  -0.022
    1UNL    H13   36   0.135  -0.176   0.083
    1UNL    H14   37   0.318  -0.252  -0.091
    1UNL    H15   38   0.201   0.060   0.043
    1UNL    H16   39   0.232   0.001   0.296
    1UNL    H17   40   0.296   0.168   0.248
    1UNL    H18   41   0.424  -0.079   0.247
    1UNL    H19   42   0.473   0.150   0.063
    1UNL    H20   43   0.296   0.196  -0.141
    1UNL    H21   44   0.522   0.092  -0.189
    1UNL    H22   45   0.534  -0.123   0.007
    1UNL    H23   46   0.404  -0.126  -0.260
    1UNL    H24   47   0.190  -0.040  -0.285
    1UNL    H25   48  -0.149  -0.166  -0.188
    1UNL    H26   49  -0.032  -0.051  -0.208
    1UNL    H27   50  -0.166   0.132  -0.116
    1UNL    H28   51  -0.274   0.039  -0.225
   0.00000   0.00000   0.00000   0.00000   0.00000   0.00000   0.00000   0.00000   0.00000
Generated with MDTraj, t= 90.0
 51
    1UNL     C1    1  -0.536   0.120   0.103
    1UNL     C2    2  -0.433   0.120  -0.011
    1UNL     C3    3  -0.508   0.122  -0.149
    1UNL     C4    4  -0.326   0.006  -0.006
    1UNL     O1    5  -0.392  -0.123   0.004
    1UNL     C5    6  -0.232   0.023   0.119
    1UNL     C6    7  -0.108  -0.053   0.120
    1UNL     C7    8  -0.056  -0.101   0.007
    1UNL     C8    9   0.074  -0.185   0.008
    1UNL     O2   10   0.160  -0.157  -0.105
    1UNL     C9   11   0.298  -0.161  -0.083
    1UNL     O3   12   0.334  -0.121   0.049
    1UNL    C10   13   0.307   0.020   0.081
    1UNL    C11   14   0.331   0.041   0.221
    1UNL     O4   15   0.454  -0.034   0.262
    1UNL    C12   16   0.398   0.116  -0.001
    1UNL     O5   17   0.320   0.220  -0.063
    1UNL    C13   18   0.472   0.042  -0.112
    1UNL     O6   19   0.590  -0.021  -0.065
    1UNL    C14   20   0.366  -0.056  -0.183
    1UNL     O7   21   0.265   0.016  -0.251
    1UNL    C15   22  -0.135  -0.106  -0.123
    1UNL    C16   23  -0.237   0.007  -0.137
    1UNL     H1   24  -0.573   0.019   0.117
    1UNL     H2   25  -0.622   0.182   0.074
    1UNL     H3   26  -0.494   0.159   0.195
    1UNL     H4   27  -0.379   0.217  -0.000
    1UNL     H5   28  -0.434   0.149  -0.231
    1UNL     H6   29  -0.586   0.197  -0.154
    1UNL     H7   30  -0.553   0.037  -0.172
    1UNL     H8   31  -0.398  -0.168  -0.082
    1UNL     H9   32  -0.197   0.126   0.113
    1UNL    H10   33  -0.304   0.024   0.205
    1UNL    H11   34  -0.056  -0.071   0.211
    1UNL    H12   35   0.056  -0.291   0.003
    1UNL    H13   36   0.131  -0.155   0.096
    1UNL    H14   37   0.343  -0.259  -0.101
    1UNL    H15   38   0.197   0.040   0.065
    1UNL    H16   39   0.249   0.001   0.279
    1UNL    H17   40   0.359   0.141   0.252
    1UNL    H18   41   0.455  -0.123   0.219
    1UNL    H19   42   0.473   0.160   0.060
    1UNL    H20   43   0.297   0.177  -0.153
    1UNL    H21   44   0.507   0.114  -0.191
    1UNL    H22   45   0.564  -0.031   0.028
    1UNL    H23   46   0.412  -0.110  -0.270
    1UNL    H24   47   0.179  -0.006  -0.204
    1UNL    H25   48  -0.177  -0.208  -0.149
    1UNL    H26   49  -0.067  -0.099  -0.207
    1UNL    H27   50  -0.187   0.110  -0.153
    1UNL    H28   51  -0.295   0.002  -0.232
   0.00000   0.00000   0.00000   0.00000   0.00000   0.00000   0.00000   0.00000   0.00000
Generated with MDTraj, t= 91.0
 51
    1UNL     C1    1  -0.529   0.130   0.091
    1UNL     C2    2  -0.425   0.122  -0.022
    1UNL     C3    3  -0.496   0.126  -0.152
    1UNL     C4    4  -0.327  -0.005  -0.004
    1UNL     O1    5  -0.408  -0.122   0.011
    1UNL     C5    6  -0.231   0.027   0.115
    1UNL     C6    7  -0.104  -0.047   0.108
    1UNL     C7    8  -0.064  -0.119   0.006
    1UNL     C8    9   0.073  -0.177  -0.003
    1UNL     O2   10   0.152  -0.104  -0.099
    1UNL     C9   11   0.290  -0.136  -0.087
    1UNL     O3   12   0.330  -0.121   0.053
    1UNL    C10   13   0.317   0.017   0.102
    1UNL    C11   14   0.354   0.036   0.243
    1UNL     O4   15   0.484  -0.026   0.268
    1UNL    C12   16   0.396   0.113   0.005
    1UNL     O5   17   0.296   0.209  -0.050
    1UNL    C13   18   0.470   0.039  -0.116
    1UNL     O6   19   0.578  -0.044  -0.062
    1UNL    C14   20   0.367  -0.045  -0.195
    1UNL     O7   21   0.280   0.028  -0.281
    1UNL    C15   22  -0.151  -0.136  -0.115
    1UNL    C16   23  -0.244  -0.026  -0.137
    1UNL     H1   24  -0.607   0.056   0.085
    1UNL     H2   25  -0.581   0.227   0.091
    1UNL     H3   26  -0.483   0.123   0.190
    1UNL     H4   27  -0.359   0.212  -0.017
    1UNL     H5   28  -0.436   0.134  -0.244
    1UNL     H6   29  -0.563   0.211  -0.164
    1UNL     H7   30  -0.565   0.047  -0.172
    1UNL     H8   31  -0.414  -0.173  -0.069
    1UNL     H9   32  -0.220   0.135   0.137
    1UNL    H10   33  -0.271  -0.021   0.205
    1UNL    H11   34  -0.031  -0.027   0.185
    1UNL    H12   35   0.064  -0.275  -0.045
    1UNL    H13   36   0.131  -0.180   0.089
    1UNL    H14   37   0.299  -0.241  -0.111
    1UNL    H15   38   0.208   0.048   0.097
    1UNL    H16   39   0.299  -0.007   0.323
    1UNL    H17   40   0.371   0.141   0.259
    1UNL    H18   41   0.490  -0.117   0.232
    1UNL    H19   42   0.470   0.168   0.055
    1UNL    H20   43   0.241   0.168  -0.116
    1UNL    H21   44   0.529   0.105  -0.182
    1UNL    H22   45   0.526  -0.110  -0.006
    1UNL    H23   46   0.420  -0.116  -0.263
    1UNL    H24   47   0.190   0.004  -0.255
    1UNL    H25   48  -0.206  -0.235  -0.102
    1UNL    H26   49  -0.094  -0.162  -0.201
    1UNL    H27   50  -0.188   0.069  -0.164
    1UNL    H28   51  -0.311  -0.028  -0.228
   0.00000   0.00000   0.00000   0.00000   0.00000   0.00000   0.00000   0.00000   0.00000
Generated with MDTraj, t= 92.0
 51
    1UNL     C1    1  -0.512   0.160   0.092
    1UNL     C2    2  -0.428   0.133  -0.032
    1UNL     C3    3  -0.507   0.126  -0.157
    1UNL     C4    4  -0.345  -0.003  -0.009
    1UNL     O1    5  -0.443  -0.111   0.025
    1UNL     C5    6  -0.252   0.009   0.106
    1UNL     C6    7  -0.111  -0.058   0.095
    1UNL     C7    8  -0.070  -0.137  -0.004
    1UNL     C8    9   0.067  -0.193  -0.016
    1UNL     O2   10   0.142  -0.102  -0.098
    1UNL     C9   11   0.285  -0.126  -0.077
    1UNL     O3   12   0.334  -0.114   0.046
    1UNL    C10   13   0.326   0.019   0.102
    1UNL    C11   14   0.378   0.023   0.245
    1UNL     O4   15   0.513  -0.030   0.234
    1UNL    C12   16   0.401   0.118   0.010
    1UNL     O5   17   0.312   0.214  -0.054
    1UNL    C13   18   0.474   0.049  -0.101
    1UNL     O6   19   0.583  -0.021  -0.045
    1UNL    C14   20   0.379  -0.048  -0.178
    1UNL     O7   21   0.307   0.035  -0.271
    1UNL    C15   22  -0.167  -0.166  -0.106
    1UNL    C16   23  -0.265  -0.051  -0.131
    1UNL     H1   24  -0.586   0.085   0.110
    1UNL     H2   25  -0.562   0.257   0.089
    1UNL     H3   26  -0.445   0.165   0.180
    1UNL     H4   27  -0.349   0.210  -0.046
    1UNL     H5   28  -0.451   0.109  -0.243
    1UNL     H6   29  -0.564   0.212  -0.176
    1UNL     H7   30  -0.589   0.039  -0.143
    1UNL     H8   31  -0.480  -0.136  -0.060
    1UNL     H9   32  -0.221   0.113   0.124
    1UNL    H10   33  -0.294  -0.027   0.198
    1UNL    H11   34  -0.051  -0.044   0.185
    1UNL    H12   35   0.076  -0.290  -0.062
    1UNL    H13   36   0.114  -0.183   0.082
    1UNL    H14   37   0.285  -0.229  -0.103
    1UNL    H15   38   0.218   0.052   0.108
    1UNL    H16   39   0.321  -0.041   0.309
    1UNL    H17   40   0.393   0.118   0.295
    1UNL    H18   41   0.499  -0.123   0.227
    1UNL    H19   42   0.464   0.175   0.074
    1UNL    H20   43   0.259   0.177  -0.130
    1UNL    H21   44   0.516   0.121  -0.172
    1UNL    H22   45   0.564  -0.031   0.048
    1UNL    H23   46   0.441  -0.120  -0.238
    1UNL    H24   47   0.217  -0.003  -0.280
    1UNL    H25   48  -0.228  -0.260  -0.080
    1UNL    H26   49  -0.117  -0.204  -0.193
    1UNL    H27   50  -0.222   0.038  -0.183
    1UNL    H28   51  -0.338  -0.076  -0.214
   0.00000   0.00000   0.00000   0.00000   0.00000   0.00000   0.00000   0.00000   0.00000
Generated with MDTraj, t= 93.0
 51
    1UNL     C1    1  -0.485   0.183   0.088
    1UNL     C2    2  -0.414   0.120  -0.033
    1UNL     C3    3  -0.519   0.110  -0.156
    1UNL     C4    4  -0.347  -0.015  -0.010
    1UNL     O1    5  -0.455  -0.106   0.023
    1UNL     C5    6  -0.249  -0.004   0.108
    1UNL     C6    7  -0.102  -0.031   0.074
    1UNL     C7    8  -0.076  -0.128  -0.011
    1UNL     C8    9   0.064  -0.181  -0.016
    1UNL     O2   10   0.149  -0.099  -0.094
    1UNL     C9   11   0.293  -0.124  -0.068
    1UNL     O3   12   0.330  -0.106   0.065
    1UNL    C10   13   0.331   0.035   0.111
    1UNL    C11   14   0.411   0.019   0.242
    1UNL     O4   15   0.517  -0.077   0.238
    1UNL    C12   16   0.390   0.133   0.006
    1UNL     O5   17   0.287   0.215  -0.054
    1UNL    C13   18   0.475   0.057  -0.102
    1UNL     O6   19   0.592  -0.008  -0.047
    1UNL    C14   20   0.380  -0.044  -0.172
    1UNL     O7   21   0.289   0.027  -0.265
    1UNL    C15   22  -0.174  -0.175  -0.114
    1UNL    C16   23  -0.283  -0.068  -0.142
    1UNL     H1   24  -0.543   0.106   0.136
    1UNL     H2   25  -0.553   0.255   0.045
    1UNL     H3   26  -0.417   0.234   0.157
    1UNL     H4   27  -0.327   0.180  -0.066
    1UNL     H5   28  -0.465   0.095  -0.243
    1UNL     H6   29  -0.567   0.205  -0.157
    1UNL     H7   30  -0.599   0.032  -0.132
    1UNL     H8   31  -0.528  -0.095  -0.041
    1UNL     H9   32  -0.265   0.096   0.151
    1UNL    H10   33  -0.272  -0.071   0.189
    1UNL    H11   34  -0.022   0.013   0.128
    1UNL    H12   35   0.061  -0.272  -0.074
    1UNL    H13   36   0.114  -0.186   0.082
    1UNL    H14   37   0.304  -0.230  -0.092
    1UNL    H15   38   0.223   0.058   0.120
    1UNL    H16   39   0.348  -0.018   0.325
    1UNL    H17   40   0.469   0.107   0.277
    1UNL    H18   41   0.473  -0.161   0.198
    1UNL    H19   42   0.463   0.197   0.052
    1UNL    H20   43   0.252   0.151  -0.119
    1UNL    H21   44   0.507   0.132  -0.170
    1UNL    H22   45   0.583  -0.037   0.049
    1UNL    H23   46   0.447  -0.108  -0.231
    1UNL    H24   47   0.208  -0.028  -0.276
    1UNL    H25   48  -0.217  -0.276  -0.084
    1UNL    H26   49  -0.122  -0.196  -0.205
    1UNL    H27   50  -0.236   0.012  -0.203
    1UNL    H28   51  -0.368  -0.095  -0.213
   0.00000   0.00000   0.00000   0.00000   0.00000   0.00000   0.00000   0.00000   0.00000
Generated with MDTraj, t= 94.0
 51
    1UNL     C1    1  -0.498   0.180   0.068
    1UNL     C2    2  -0.421   0.128  -0.050
    1UNL     C3    3  -0.511   0.097  -0.167
    1UNL     C4    4  -0.343  -0.006  -0.013
    1UNL     O1    5  -0.431  -0.102   0.039
    1UNL     C5    6  -0.236   0.032   0.101
    1UNL     C6    7  -0.104  -0.042   0.095
    1UNL     C7    8  -0.075  -0.136   0.005
    1UNL     C8    9   0.062  -0.178  -0.017
    1UNL     O2   10   0.143  -0.079  -0.087
    1UNL     C9   11   0.277  -0.112  -0.086
    1UNL     O3   12   0.328  -0.117   0.051
    1UNL    C10   13   0.338   0.015   0.112
    1UNL    C11   14   0.410  -0.004   0.244
    1UNL     O4   15   0.529  -0.073   0.241
    1UNL    C12   16   0.386   0.134   0.015
    1UNL     O5   17   0.260   0.188  -0.031
    1UNL    C13   18   0.467   0.070  -0.103
    1UNL     O6   19   0.587  -0.002  -0.055
    1UNL    C14   20   0.375  -0.036  -0.177
    1UNL     O7   21   0.308   0.030  -0.284
    1UNL    C15   22  -0.181  -0.181  -0.094
    1UNL    C16   23  -0.269  -0.066  -0.133
    1UNL     H1   24  -0.583   0.116   0.092
    1UNL     H2   25  -0.535   0.281   0.062
    1UNL     H3   26  -0.428   0.177   0.150
    1UNL     H4   27  -0.341   0.197  -0.078
    1UNL     H5   28  -0.454   0.084  -0.260
    1UNL     H6   29  -0.565   0.190  -0.181
    1UNL     H7   30  -0.573   0.025  -0.143
    1UNL     H8   31  -0.467  -0.160  -0.036
    1UNL     H9   32  -0.226   0.141   0.102
    1UNL    H10   33  -0.291   0.021   0.190
    1UNL    H11   34  -0.015  -0.004   0.149
    1UNL    H12   35   0.067  -0.262  -0.088
    1UNL    H13   36   0.110  -0.196   0.082
    1UNL    H14   37   0.279  -0.221  -0.110
    1UNL    H15   38   0.236   0.045   0.129
    1UNL    H16   39   0.358  -0.067   0.324
    1UNL    H17   40   0.436   0.099   0.281
    1UNL    H18   41   0.511  -0.163   0.214
    1UNL    H19   42   0.426   0.208   0.085
    1UNL    H20   43   0.220   0.106  -0.072
    1UNL    H21   44   0.481   0.142  -0.179
    1UNL    H22   45   0.578  -0.033   0.038
    1UNL    H23   46   0.447  -0.108  -0.212
    1UNL    H24   47   0.231  -0.025  -0.306
    1UNL    H25   48  -0.250  -0.262  -0.055
    1UNL    H26   49  -0.137  -0.216  -0.187
    1UNL    H27   50  -0.214   0.020  -0.173
    1UNL    H28   51  -0.331  -0.105  -0.224
   0.00000   0.00000   0.00000   0.00000   0.00000   0.00000   0.00000   0.00000   0.00000
Generated with MDTraj, t= 95.0
 51
    1UNL     C1    1  -0.520   0.166   0.061
    1UNL     C2    2  -0.428   0.132  -0.053
    1UNL     C3    3  -0.510   0.097  -0.182
    1UNL     C4    4  -0.336   0.005  -0.013
    1UNL     O1    5  -0.414  -0.094   0.051
    1UNL     C5    6  -0.229   0.063   0.084
    1UNL     C6    7  -0.089   0.000   0.080
    1UNL     C7    8  -0.063  -0.100  -0.002
    1UNL     C8    9   0.071  -0.173  -0.002
    1UNL     O2   10   0.158  -0.101  -0.090
    1UNL     C9   11   0.291  -0.142  -0.089
    1UNL     O3   12   0.353  -0.144   0.047
    1UNL    C10   13   0.330  -0.020   0.115
    1UNL    C11   14   0.410  -0.024   0.246
    1UNL     O4   15   0.541  -0.063   0.203
    1UNL    C12   16   0.353   0.106   0.026
    1UNL     O5   17   0.227   0.166  -0.008
    1UNL    C13   18   0.441   0.078  -0.094
    1UNL     O6   19   0.580   0.047  -0.053
    1UNL    C14   20   0.379  -0.045  -0.175
    1UNL     O7   21   0.292   0.018  -0.265
    1UNL    C15   22  -0.163  -0.164  -0.087
    1UNL    C16   23  -0.267  -0.060  -0.131
    1UNL     H1   24  -0.560   0.074   0.108
    1UNL     H2   25  -0.603   0.231   0.043
    1UNL     H3   26  -0.468   0.219   0.139
    1UNL     H4   27  -0.354   0.211  -0.067
    1UNL     H5   28  -0.457   0.054  -0.265
    1UNL     H6   29  -0.550   0.182  -0.235
    1UNL     H7   30  -0.595   0.032  -0.169
    1UNL     H8   31  -0.462  -0.153  -0.017
    1UNL     H9   32  -0.225   0.172   0.075
    1UNL    H10   33  -0.272   0.057   0.180
    1UNL    H11   34  -0.008   0.031   0.138
    1UNL    H12   35   0.060  -0.273  -0.046
    1UNL    H13   36   0.121  -0.176   0.098
    1UNL    H14   37   0.301  -0.244  -0.135
    1UNL    H15   38   0.224  -0.020   0.132
    1UNL    H16   39   0.362  -0.111   0.304
    1UNL    H17   40   0.428   0.074   0.302
    1UNL    H18   41   0.534  -0.150   0.156
    1UNL    H19   42   0.407   0.176   0.095
    1UNL    H20   43   0.183   0.085  -0.037
    1UNL    H21   44   0.438   0.155  -0.166
    1UNL    H22   45   0.571   0.012   0.042
    1UNL    H23   46   0.461  -0.087  -0.231
    1UNL    H24   47   0.204  -0.029  -0.266
    1UNL    H25   48  -0.217  -0.242  -0.028
    1UNL    H26   49  -0.122  -0.204  -0.181
    1UNL    H27   50  -0.214   0.011  -0.196
    1UNL    H28   51  -0.344  -0.113  -0.198
   0.00000   0.00000   0.00000   0.00000   0.00000   0.00000   0.00000   0.00000   0.00000
Generated with MDTraj, t= 96.0
 51
    1UNL     C1    1  -0.505   0.183   0.054
    1UNL     C2    2  -0.427   0.124  -0.060
    1UNL     C3    3  -0.525   0.075  -0.174
    1UNL     C4    4  -0.323   0.018  -0.019
    1UNL     O1    5  -0.389  -0.086   0.059
    1UNL     C5    6  -0.210   0.078   0.060
    1UNL     C6    7  -0.094  -0.014   0.079
    1UNL     C7    8  -0.076  -0.117   0.000
    1UNL     C8    9   0.058  -0.173  -0.014
    1UNL     O2   10   0.155  -0.099  -0.091
    1UNL     C9   11   0.288  -0.139  -0.078
    1UNL     O3   12   0.338  -0.141   0.059
    1UNL    C10   13   0.331  -0.018   0.137
    1UNL    C11   14   0.453  -0.023   0.239
    1UNL     O4   15   0.568  -0.082   0.182
    1UNL    C12   16   0.335   0.103   0.052
    1UNL     O5   17   0.202   0.160   0.033
    1UNL    C13   18   0.414   0.082  -0.088
    1UNL     O6   19   0.557   0.085  -0.054
    1UNL    C14   20   0.378  -0.050  -0.165
    1UNL     O7   21   0.312  -0.017  -0.288
    1UNL    C15   22  -0.170  -0.164  -0.100
    1UNL    C16   23  -0.270  -0.048  -0.151
    1UNL     H1   24  -0.588   0.116   0.083
    1UNL     H2   25  -0.540   0.282   0.033
    1UNL     H3   26  -0.441   0.197   0.139
    1UNL     H4   27  -0.367   0.207  -0.096
    1UNL     H5   28  -0.497   0.103  -0.271
    1UNL     H6   29  -0.621   0.114  -0.163
    1UNL     H7   30  -0.531  -0.044  -0.175
    1UNL     H8   31  -0.479  -0.097   0.017
    1UNL     H9   32  -0.177   0.169   0.013
    1UNL    H10   33  -0.236   0.114   0.157
    1UNL    H11   34  -0.013   0.017   0.150
    1UNL    H12   35   0.057  -0.271  -0.067
    1UNL    H13   36   0.099  -0.188   0.089
    1UNL    H14   37   0.305  -0.241  -0.126
    1UNL    H15   38   0.231  -0.028   0.176
    1UNL    H16   39   0.423  -0.087   0.323
    1UNL    H17   40   0.472   0.086   0.266
    1UNL    H18   41   0.538  -0.169   0.139
    1UNL    H19   42   0.396   0.184   0.101
    1UNL    H20   43   0.155   0.093  -0.019
    1UNL    H21   44   0.397   0.167  -0.149
    1UNL    H22   45   0.568   0.028   0.023
    1UNL    H23   46   0.467  -0.104  -0.194
    1UNL    H24   47   0.231   0.033  -0.269
    1UNL    H25   48  -0.239  -0.240  -0.061
    1UNL    H26   49  -0.115  -0.204  -0.187
    1UNL    H27   50  -0.225   0.026  -0.219
    1UNL    H28   51  -0.345  -0.100  -0.219
   0.00000   0.00000   0.00000   0.00000   0.00000   0.00000   0.00000   0.00000   0.00000
Generated with MDTraj, t= 97.0
 51
    1UNL     C1    1  -0.473   0.205   0.062
    1UNL     C2    2  -0.436   0.129  -0.074
    1UNL     C3    3  -0.562   0.079  -0.144
    1UNL     C4    4  -0.336   0.015  -0.033
    1UNL     O1    5  -0.406  -0.091   0.044
    1UNL     C5    6  -0.225   0.078   0.046
    1UNL     C6    7  -0.103  -0.013   0.064
    1UNL     C7    8  -0.069  -0.109  -0.021
    1UNL     C8    9   0.061  -0.179  -0.018
    1UNL     O2   10   0.155  -0.110  -0.091
    1UNL     C9   11   0.291  -0.141  -0.055
    1UNL     O3   12   0.313  -0.141   0.091
    1UNL    C10   13   0.342  -0.015   0.156
    1UNL    C11   14   0.489  -0.036   0.223
    1UNL     O4   15   0.578  -0.084   0.132
    1UNL    C12   16   0.339   0.108   0.066
    1UNL     O5   17   0.202   0.133   0.032
    1UNL    C13   18   0.410   0.094  -0.077
    1UNL     O6   19   0.542   0.133  -0.056
    1UNL    C14   20   0.387  -0.052  -0.137
    1UNL     O7   21   0.342  -0.041  -0.269
    1UNL    C15   22  -0.175  -0.163  -0.117
    1UNL    C16   23  -0.278  -0.054  -0.159
    1UNL     H1   24  -0.491   0.129   0.139
    1UNL     H2   25  -0.555   0.274   0.053
    1UNL     H3   26  -0.390   0.268   0.087
    1UNL     H4   27  -0.388   0.198  -0.142
    1UNL     H5   28  -0.544  -0.008  -0.200
    1UNL     H6   29  -0.597   0.163  -0.197
    1UNL     H7   30  -0.625   0.052  -0.049
    1UNL     H8   31  -0.421  -0.163  -0.019
    1UNL     H9   32  -0.197   0.171   0.006
    1UNL    H10   33  -0.257   0.103   0.144
    1UNL    H11   34  -0.032   0.018   0.134
    1UNL    H12   35   0.061  -0.281  -0.061
    1UNL    H13   36   0.112  -0.177   0.082
    1UNL    H14   37   0.307  -0.248  -0.083
    1UNL    H15   38   0.283  -0.011   0.247
    1UNL    H16   39   0.483  -0.102   0.308
    1UNL    H17   40   0.529   0.062   0.253
    1UNL    H18   41   0.539  -0.163   0.088
    1UNL    H19   42   0.387   0.197   0.120
    1UNL    H20   43   0.168   0.054  -0.024
    1UNL    H21   44   0.363   0.165  -0.143
    1UNL    H22   45   0.578   0.058   0.006
    1UNL    H23   46   0.478  -0.112  -0.140
    1UNL    H24   47   0.263   0.017  -0.283
    1UNL    H25   48  -0.222  -0.245  -0.068
    1UNL    H26   49  -0.119  -0.205  -0.204
    1UNL    H27   50  -0.237   0.015  -0.237
    1UNL    H28   51  -0.366  -0.088  -0.220
   0.00000   0.00000   0.00000   0.00000   0.00000   0.00000   0.00000   0.00000   0.00000
Generated with MDTraj, t= 98.0
 51
    1UNL     C1    1  -0.474   0.229   0.038
    1UNL     C2    2  -0.449   0.127  -0.070
    1UNL     C3    3  -0.581   0.069  -0.124
    1UNL     C4    4  -0.346   0.013  -0.028
    1UNL     O1    5  -0.416  -0.091   0.047
    1UNL     C5    6  -0.233   0.071   0.056
    1UNL     C6    7  -0.104  -0.013   0.056
    1UNL     C7    8  -0.073  -0.109  -0.029
    1UNL     C8    9   0.056  -0.183  -0.029
    1UNL     O2   10   0.157  -0.097  -0.080
    1UNL     C9   11   0.297  -0.138  -0.049
    1UNL     O3   12   0.322  -0.149   0.096
    1UNL    C10   13   0.355  -0.022   0.161
    1UNL    C11   14   0.511  -0.031   0.215
    1UNL     O4   15   0.587  -0.084   0.111
    1UNL    C12   16   0.337   0.098   0.070
    1UNL     O5   17   0.195   0.132   0.050
    1UNL    C13   18   0.400   0.089  -0.072
    1UNL     O6   19   0.527   0.149  -0.060
    1UNL    C14   20   0.399  -0.056  -0.125
    1UNL     O7   21   0.383  -0.067  -0.264
    1UNL    C15   22  -0.178  -0.145  -0.135
    1UNL    C16   23  -0.290  -0.050  -0.163
    1UNL     H1   24  -0.507   0.173   0.125
    1UNL     H2   25  -0.550   0.302   0.009
    1UNL     H3   26  -0.392   0.297   0.058
    1UNL     H4   27  -0.400   0.177  -0.153
    1UNL     H5   28  -0.559  -0.019  -0.185
    1UNL     H6   29  -0.638   0.140  -0.184
    1UNL     H7   30  -0.631   0.026  -0.046
    1UNL     H8   31  -0.392  -0.176   0.013
    1UNL     H9   32  -0.203   0.164   0.020
    1UNL    H10   33  -0.272   0.097   0.153
    1UNL    H11   34  -0.030   0.015   0.134
    1UNL    H12   35   0.059  -0.261  -0.106
    1UNL    H13   36   0.096  -0.215   0.069
    1UNL    H14   37   0.306  -0.242  -0.084
    1UNL    H15   38   0.290  -0.009   0.250
    1UNL    H16   39   0.509  -0.095   0.300
    1UNL    H17   40   0.552   0.067   0.237
    1UNL    H18   41   0.558  -0.180   0.097
    1UNL    H19   42   0.377   0.191   0.121
    1UNL    H20   43   0.145   0.063   0.006
    1UNL    H21   44   0.355   0.159  -0.145
    1UNL    H22   45   0.580   0.094  -0.002
    1UNL    H23   46   0.501  -0.095  -0.104
    1UNL    H24   47   0.299  -0.029  -0.303
    1UNL    H25   48  -0.215  -0.237  -0.101
    1UNL    H26   49  -0.123  -0.172  -0.230
    1UNL    H27   50  -0.254   0.034  -0.229
    1UNL    H28   51  -0.369  -0.081  -0.236
   0.00000   0.00000   0.00000   0.00000   0.00000   0.00000   0.00000   0.00000   0.00000
Generated with MDTraj, t= 99.0
 51
    1UNL     C1    1  -0.484   0.203   0.058
    1UNL     C2    2  -0.450   0.118  -0.064
    1UNL     C3    3  -0.575   0.057  -0.128
    1UNL     C4    4  -0.338   0.016  -0.036
    1UNL     O1    5  -0.388  -0.096   0.041
    1UNL     C5    6  -0.221   0.093   0.038
    1UNL     C6    7  -0.096   0.004   0.050
    1UNL     C7    8  -0.084  -0.108  -0.022
    1UNL     C8    9   0.052  -0.177  -0.017
    1UNL     O2   10   0.154  -0.093  -0.087
    1UNL     C9   11   0.281  -0.141  -0.050
    1UNL     O3   12   0.305  -0.141   0.089
    1UNL    C10   13   0.352  -0.025   0.153
    1UNL    C11   14   0.491  -0.051   0.219
    1UNL     O4   15   0.591  -0.068   0.127
    1UNL    C12   16   0.344   0.102   0.078
    1UNL     O5   17   0.207   0.153   0.070
    1UNL    C13   18   0.400   0.084  -0.072
    1UNL     O6   19   0.531   0.131  -0.077
    1UNL    C14   20   0.390  -0.067  -0.129
    1UNL     O7   21   0.370  -0.058  -0.273
    1UNL    C15   22  -0.175  -0.151  -0.133
    1UNL    C16   23  -0.276  -0.045  -0.166
    1UNL     H1   24  -0.530   0.139   0.128
    1UNL     H2   25  -0.553   0.280   0.022
    1UNL     H3   26  -0.410   0.269   0.106
    1UNL     H4   27  -0.405   0.189  -0.133
    1UNL     H5   28  -0.569   0.041  -0.237
    1UNL     H6   29  -0.662   0.121  -0.129
    1UNL     H7   30  -0.608  -0.036  -0.102
    1UNL     H8   31  -0.459  -0.069   0.101
    1UNL     H9   32  -0.202   0.184  -0.011
    1UNL    H10   33  -0.249   0.135   0.134
    1UNL    H11   34  -0.016   0.039   0.109
    1UNL    H12   35   0.048  -0.271  -0.070
    1UNL    H13   36   0.085  -0.184   0.086
    1UNL    H14   37   0.289  -0.248  -0.072
    1UNL    H15   38   0.277  -0.012   0.237
    1UNL    H16   39   0.487  -0.143   0.274
    1UNL    H17   40   0.516   0.040   0.275
    1UNL    H18   41   0.577  -0.154   0.076
    1UNL    H19   42   0.402   0.183   0.131
    1UNL    H20   43   0.155   0.084   0.023
    1UNL    H21   44   0.350   0.153  -0.145
    1UNL    H22   45   0.582   0.074  -0.009
    1UNL    H23   46   0.489  -0.122  -0.126
    1UNL    H24   47   0.342  -0.143  -0.312
    1UNL    H25   48  -0.226  -0.241  -0.118
    1UNL    H26   49  -0.114  -0.169  -0.226
    1UNL    H27   50  -0.240   0.040  -0.230
    1UNL    H28   51  -0.355  -0.084  -0.231
   0.00000   0.00000   0.00000   0.00000   0.00000   0.00000   0.00000   0.00000   0.00000
