1TPCN00689
9
    1res  C1    1    0.546   0.091   0.016
    1res  C2    2    0.361  -0.055  -0.139
    1res  C3    3    0.140  -0.095  -0.191
    1res  C4    4   -0.068  -0.163  -0.096
    1res  C5    5   -0.352  -0.053  -0.111
    1res  C6    6   -0.616   0.066  -0.063
    1res  C7    7   -0.340   0.110   0.123
    1res  C8    8   -0.333  -0.186   0.138
    1res  C9    9    0.186   0.026   0.080
  10.00000  10.00000  10.00000
