[ moleculetype ]
; name        nrexcl
res           1

[ atoms ]
;    nr  type  resnr resid  atom  cgnr     charge       mass
      1 TP1       1 res   C1        1      0.000     36.000
      2 TN4a      1 res   C2        2      0.000     36.000
      3 SP4       1 res   C3        3      0.000     54.000
      4 SP4       1 res   C4        4      0.000     54.000
      5 SN6       1 res   C5        5      0.000     54.000
      6 TN4a      1 res   C6        6      0.000     36.000
      7 SP4       1 res   C7        7      0.000     54.000
      8 TP1       1 res   C8        8      0.000     36.000

[ constraints ]
;  ai    aj   funct      b0(nm)
    1     2     1      0.20788
    2     3     1      0.26225
    5     7     1      0.29208
    6     8     1      0.21881
    3     4     1      0.28028
    5     6     1      0.28699
    6     7     1      0.28414
    2     4     1      0.28430

[ bonds ]
;  ai    aj   funct      b0(nm)          k(kJ/mol/nm^2)
    4     5     1      0.30194          16482.3

[ angles ]
;  ai    aj    ak  funct     th0(deg)        k(kJ/mol/rad^2)
    1     2     3     1    114.24997           660.71
    1     2     4     1    152.55011           324.96
    2     3     4     1     63.10944          1819.66
    2     4     3     1     55.32241          4861.46
    2     4     5     1     88.17754           286.31
    3     2     4     1     61.56830          1397.25
    3     4     5     1     92.22257           204.22
    4     5     6     1    103.53404           790.16
    4     5     7     1    159.23052           329.90
    5     6     7     1     61.52433          2647.47
    5     6     8     1    106.90115           371.80
    5     7     6     1     59.70645          5015.87
    6     5     7     1     58.76907          2725.39
    7     6     8     1    135.20650           196.77

[ dihedrals ]
;  ai    aj    ak    al  funct   phi0(deg)        k(kJ/mol)   mult
    1     2     3     4     1     30.27550        9.328      1
    1     2     4     3     1    -88.94914       13.543      1
    1     2     4     5     1    176.74410       18.414      1
    2     3     4     5     1    -93.06581       10.079      1
    2     4     5     6     1     96.99673       19.697      1
    2     4     5     7     1     85.19248       30.596      1
    3     2     4     5     1     86.92933       12.874      1
    3     4     5     6     1     39.73047       19.674      1
    3     4     5     7     1     28.99808       30.023      1
    4     5     6     7     1      7.88816       17.768      1
    4     5     6     8     1   -128.85465       21.015      1
    4     5     7     6     1   -164.66139       26.670      1
    5     7     6     8     1    -95.44676       15.674      1
    7     5     6     8     1     44.85781       14.267      1
