[ moleculetype ]
; name        nrexcl
res           1

[ atoms ]
;    nr  type  resnr resid  atom  cgnr     charge       mass
      1 N4a       1 res   C1        1      0.000     72.000
      2 TC5       1 res   C2        2      0.000     36.000
      3 TN6a      1 res   C3        3      0.000     36.000
      4 TC5       1 res   C4        4      0.000     36.000
      5 SN6       1 res   C5        5      0.000     54.000
      6 TC4       1 res   C6        6      0.000     36.000

[ bonds ]
;  ai    aj   funct      b0(nm)          k(kJ/mol/nm^2)
    1     2     1      0.32818          49119.6
    2     3     1      0.26126         102713.9
    2     4     1      0.25017         215610.1
    3     4     1      0.22119         233872.3
    4     5     1      0.25297          46922.5
    4     6     1      0.27521          51250.9
    5     6     1      0.30360          34905.3

[ angles ]
;  ai    aj    ak  funct     th0(deg)        k(kJ/mol/rad^2)
    1     2     3     1    158.60471          1101.99
    1     2     4     1    108.05695          1179.94
    2     3     4     1     61.81504          3721.66
    2     4     3     1     66.99783          2978.08
    2     4     5     1    136.37395          1215.92
    2     4     6     1    147.79445           622.67
    3     2     4     1     51.18708          7096.32
    3     4     5     1    154.60729          1053.14
    3     4     6     1     86.24079           595.92
    4     5     6     1     58.40294          2975.93
    4     6     5     1     51.58018          1485.69
    5     4     6     1     70.01698          1748.11
