1TPCN05697
33
    1res  C1    1    0.155  -0.235  -0.327
    1res  C2    2    0.280  -0.206  -0.053
    1res  C3    3    0.156  -0.027  -0.075
    1res  C4    4    0.074   0.237   0.048
    1res  C5    5    0.318   0.244  -0.091
    1res  C6    6    0.281   0.380   0.168
    1res  C7    7   -0.170   0.328  -0.159
    1res  C8    8   -0.233   0.052   0.121
    1res  C9    9   -0.380   0.106  -0.222
    1res  C10   10   -0.567  -0.045  -0.150
    1res  C11   11   -0.601  -0.211   0.115
    1res  C12   12   -0.822  -0.115   0.028
    1res  C13   13   -1.067  -0.150   0.044
    1res  C14   14   -1.310   0.070   0.035
    1res  C15   15   -1.342  -0.199   0.156
    1res  C16   16   -1.209  -0.378   0.029
    1res  C17   17   -1.026  -0.359   0.196
    1res  C18   18   -0.859   0.130   0.016
    1res  C19   19   -0.742   0.084   0.275
    1res  C20   20   -0.491   0.282  -0.003
    1res  C21   21   -0.050   0.122  -0.292
    1res  C22   22    0.493  -0.188  -0.081
    1res  C23   23    0.686  -0.152  -0.014
    1res  C24   24    0.848  -0.280   0.122
    1res  C25   25    0.968  -0.051   0.101
    1res  C26   26    1.195   0.022   0.280
    1res  C27   27    1.389   0.170   0.314
    1res  C28   28    1.485   0.016   0.145
    1res  C29   29    1.295  -0.142   0.055
    1res  C30   30    0.949   0.014  -0.099
    1res  C31   31    0.735   0.058  -0.084
    1res  C32   32    0.504  -0.144  -0.306
    1res  C33   33    0.406  -0.356  -0.381
  10.00000  10.00000  10.00000
