[ moleculetype ]
; name        nrexcl
res           1

[ atoms ]
;    nr  type  resnr resid  atom  cgnr     charge       mass
      1 SX3       1 res   C1        1      0.000     54.000
      2 TC5       1 res   C2        2      0.000     36.000
      3 SX3       1 res   C3        3      0.000     54.000

[ constraints ]
;  ai    aj   funct      b0(nm)
    1     2     1      0.30466
    1     3     1      0.31240
    2     3     1      0.29630

[ bonds ]
;  ai    aj   funct      b0(nm)          k(kJ/mol/nm^2)

[ angles ]
;  ai    aj    ak  funct     th0(deg)        k(kJ/mol/rad^2)
    1     2     3     1     62.62639          6933.80
    1     3     2     1     59.99417          9717.37
    2     1     3     1     57.37942          7840.91

[ dihedrals ]
;  ai    aj    ak    al  funct   phi0(deg)        k(kJ/mol)   mult
