1TPCN01158
6
    1res  C1    1   -0.206   0.106   0.255
    1res  C2    2   -0.235   0.103  -0.093
    1res  C3    3   -0.167  -0.152   0.040
    1res  C4    4    0.089  -0.060  -0.016
    1res  C5    5    0.260  -0.156  -0.141
    1res  C6    6    0.370   0.058  -0.020
  10.00000  10.00000  10.00000
