1TPCN02869
9
    1res  C1    1   -0.360  -0.110   0.183
    1res  C2    2   -0.591   0.063   0.117
    1res  C3    3   -0.255   0.131  -0.114
    1res  C4    4   -0.151  -0.132  -0.093
    1res  C5    5    0.085  -0.012  -0.022
    1res  C6    6    0.164   0.027  -0.259
    1res  C7    7    0.306   0.013   0.006
    1res  C8    8    0.534   0.051  -0.079
    1res  C9    9    0.005  -0.014   0.212
  10.00000  10.00000  10.00000
