Generated with MDTraj, t= 0.0
 54
    1UNL     C1    1  -0.349  -0.271  -0.065
    1UNL     C2    2  -0.335  -0.121  -0.045
    1UNL     C3    3  -0.196  -0.076   0.006
    1UNL     C4    4  -0.196   0.081   0.014
    1UNL     C5    5  -0.114   0.156  -0.090
    1UNL     C6    6  -0.145   0.298  -0.108
    1UNL     O1    7  -0.065   0.372  -0.163
    1UNL     O2    8  -0.266   0.341  -0.058
    1UNL     C7    9  -0.280   0.477  -0.081
    1UNL     C8   10   0.009   0.108  -0.132
    1UNL     N1   11   0.126   0.182  -0.112
    1UNL     C9   12   0.205   0.114  -0.016
    1UNL    C10   13   0.312   0.163   0.058
    1UNL    C11   14   0.370   0.081   0.155
    1UNL     O3   15   0.478   0.119   0.236
    1UNL    C12   16   0.521   0.252   0.217
    1UNL    C13   17   0.319  -0.048   0.174
    1UNL    C14   18   0.212  -0.095   0.100
    1UNL    C15   19   0.153  -0.014   0.006
    1UNL    C16   20   0.047  -0.037  -0.104
    1UNL    C17   21   0.117  -0.119  -0.217
    1UNL    C18   22   0.067  -0.264  -0.197
    1UNL     N2   23  -0.052  -0.263  -0.104
    1UNL    C19   24  -0.031  -0.339   0.022
    1UNL    C20   25  -0.098  -0.278   0.147
    1UNL     O4   26  -0.036  -0.157   0.186
    1UNL    C21   27  -0.169  -0.141   0.145
    1UNL    C22   28  -0.086  -0.118  -0.094
    1UNL     H1   29  -0.333  -0.325   0.028
    1UNL     H2   30  -0.449  -0.298  -0.101
    1UNL     H3   31  -0.277  -0.308  -0.138
    1UNL     H4   32  -0.356  -0.069  -0.139
    1UNL     H5   33  -0.411  -0.086   0.026
    1UNL     H6   34  -0.299   0.118   0.011
    1UNL     H7   35  -0.158   0.110   0.113
    1UNL     H8   36  -0.276   0.495  -0.189
    1UNL     H9   37  -0.376   0.510  -0.042
    1UNL    H10   38  -0.199   0.530  -0.032
    1UNL    H11   39   0.117   0.284  -0.105
    1UNL    H12   40   0.347   0.262   0.040
    1UNL    H13   41   0.558   0.265   0.115
    1UNL    H14   42   0.603   0.272   0.287
    1UNL    H15   43   0.439   0.321   0.238
    1UNL    H16   44   0.364  -0.110   0.249
    1UNL    H17   45   0.174  -0.194   0.118
    1UNL    H18   46   0.226  -0.111  -0.210
    1UNL    H19   47   0.088  -0.079  -0.314
    1UNL    H20   48   0.146  -0.328  -0.155
    1UNL    H21   49   0.037  -0.310  -0.292
    1UNL    H22   50   0.076  -0.350   0.040
    1UNL    H23   51  -0.069  -0.440   0.005
    1UNL    H24   52  -0.118  -0.347   0.230
    1UNL    H25   53  -0.240  -0.116   0.224
    1UNL    H26   54  -0.134  -0.099  -0.192
   0.00000   0.00000   0.00000   0.00000   0.00000   0.00000   0.00000   0.00000   0.00000
Generated with MDTraj, t= 1.0
 54
    1UNL     C1    1  -0.358  -0.269  -0.045
    1UNL     C2    2  -0.326  -0.125  -0.028
    1UNL     C3    3  -0.185  -0.084   0.020
    1UNL     C4    4  -0.186   0.074   0.014
    1UNL     C5    5  -0.120   0.157  -0.094
    1UNL     C6    6  -0.155   0.302  -0.115
    1UNL     O1    7  -0.075   0.373  -0.177
    1UNL     O2    8  -0.275   0.349  -0.066
    1UNL     C7    9  -0.283   0.484  -0.096
    1UNL     C8   10   0.012   0.117  -0.136
    1UNL     N1   11   0.130   0.191  -0.111
    1UNL     C9   12   0.208   0.121  -0.015
    1UNL    C10   13   0.315   0.163   0.064
    1UNL    C11   14   0.363   0.083   0.164
    1UNL     O3   15   0.469   0.106   0.249
    1UNL    C12   16   0.533   0.220   0.208
    1UNL    C13   17   0.295  -0.037   0.189
    1UNL    C14   18   0.195  -0.083   0.105
    1UNL    C15   19   0.153  -0.008  -0.004
    1UNL    C16   20   0.054  -0.023  -0.118
    1UNL    C17   21   0.118  -0.112  -0.233
    1UNL    C18   22   0.069  -0.260  -0.214
    1UNL     N2   23  -0.040  -0.260  -0.111
    1UNL    C19   24  -0.032  -0.341   0.022
    1UNL    C20   25  -0.096  -0.288   0.151
    1UNL     O4   26  -0.021  -0.176   0.196
    1UNL    C21   27  -0.156  -0.150   0.158
    1UNL    C22   28  -0.080  -0.110  -0.094
    1UNL     H1   29  -0.369  -0.328   0.056
    1UNL     H2   30  -0.447  -0.294  -0.098
    1UNL     H3   31  -0.283  -0.317  -0.094
    1UNL     H4   32  -0.335  -0.085  -0.124
    1UNL     H5   33  -0.408  -0.074   0.033
    1UNL     H6   34  -0.285   0.105   0.016
    1UNL     H7   35  -0.142   0.094   0.114
    1UNL     H8   36  -0.262   0.493  -0.201
    1UNL     H9   37  -0.381   0.529  -0.075
    1UNL    H10   38  -0.203   0.532  -0.039
    1UNL    H11   39   0.110   0.293  -0.099
    1UNL    H12   40   0.343   0.266   0.069
    1UNL    H13   41   0.555   0.222   0.100
    1UNL    H14   42   0.603   0.256   0.284
    1UNL    H15   43   0.470   0.308   0.231
    1UNL    H16   44   0.336  -0.105   0.265
    1UNL    H17   45   0.134  -0.169   0.131
    1UNL    H18   46   0.226  -0.124  -0.224
    1UNL    H19   47   0.097  -0.060  -0.325
    1UNL    H20   48   0.145  -0.331  -0.192
    1UNL    H21   49   0.017  -0.288  -0.310
    1UNL    H22   50   0.074  -0.362   0.034
    1UNL    H23   51  -0.073  -0.438  -0.006
    1UNL    H24   52  -0.112  -0.365   0.232
    1UNL    H25   53  -0.239  -0.153   0.231
    1UNL    H26   54  -0.132  -0.085  -0.188
   0.00000   0.00000   0.00000   0.00000   0.00000   0.00000   0.00000   0.00000   0.00000
Generated with MDTraj, t= 2.0
 54
    1UNL     C1    1  -0.374  -0.259  -0.074
    1UNL     C2    2  -0.337  -0.111  -0.035
    1UNL     C3    3  -0.199  -0.072   0.007
    1UNL     C4    4  -0.186   0.087   0.013
    1UNL     C5    5  -0.105   0.157  -0.093
    1UNL     C6    6  -0.150   0.296  -0.109
    1UNL     O1    7  -0.081   0.373  -0.173
    1UNL     O2    8  -0.276   0.331  -0.052
    1UNL     C7    9  -0.310   0.454  -0.096
    1UNL     C8   10   0.018   0.107  -0.134
    1UNL     N1   11   0.141   0.179  -0.113
    1UNL     C9   12   0.209   0.117  -0.005
    1UNL    C10   13   0.315   0.168   0.070
    1UNL    C11   14   0.373   0.081   0.169
    1UNL     O3   15   0.460   0.139   0.265
    1UNL    C12   16   0.550   0.233   0.204
    1UNL    C13   17   0.342  -0.060   0.166
    1UNL    C14   18   0.231  -0.102   0.099
    1UNL    C15   19   0.162  -0.014   0.016
    1UNL    C16   20   0.060  -0.037  -0.098
    1UNL    C17   21   0.122  -0.120  -0.215
    1UNL    C18   22   0.060  -0.259  -0.205
    1UNL     N2   23  -0.052  -0.262  -0.105
    1UNL    C19   24  -0.045  -0.341   0.014
    1UNL    C20   25  -0.100  -0.271   0.137
    1UNL     O4   26  -0.037  -0.149   0.184
    1UNL    C21   27  -0.167  -0.137   0.143
    1UNL    C22   28  -0.085  -0.118  -0.089
    1UNL     H1   29  -0.364  -0.322   0.021
    1UNL     H2   30  -0.471  -0.276  -0.113
    1UNL     H3   31  -0.303  -0.295  -0.143
    1UNL     H4   32  -0.379  -0.047  -0.101
    1UNL     H5   33  -0.396  -0.104   0.067
    1UNL     H6   34  -0.283   0.115   0.022
    1UNL     H7   35  -0.137   0.104   0.111
    1UNL     H8   36  -0.354   0.441  -0.193
    1UNL     H9   37  -0.392   0.495  -0.032
    1UNL    H10   38  -0.220   0.519  -0.090
    1UNL    H11   39   0.110   0.280  -0.110
    1UNL    H12   40   0.347   0.273   0.071
    1UNL    H13   41   0.544   0.222   0.095
    1UNL    H14   42   0.648   0.227   0.250
    1UNL    H15   43   0.527   0.337   0.223
    1UNL    H16   44   0.401  -0.136   0.209
    1UNL    H17   45   0.195  -0.203   0.105
    1UNL    H18   46   0.232  -0.124  -0.217
    1UNL    H19   47   0.095  -0.064  -0.303
    1UNL    H20   48   0.135  -0.319  -0.164
    1UNL    H21   49   0.032  -0.303  -0.305
    1UNL    H22   50   0.061  -0.363   0.020
    1UNL    H23   51  -0.093  -0.433  -0.020
    1UNL    H24   52  -0.138  -0.345   0.218
    1UNL    H25   53  -0.255  -0.152   0.207
    1UNL    H26   54  -0.129  -0.098  -0.192
   0.00000   0.00000   0.00000   0.00000   0.00000   0.00000   0.00000   0.00000   0.00000
Generated with MDTraj, t= 3.0
 54
    1UNL     C1    1  -0.332  -0.251  -0.097
    1UNL     C2    2  -0.329  -0.106  -0.048
    1UNL     C3    3  -0.195  -0.077   0.014
    1UNL     C4    4  -0.173   0.079   0.025
    1UNL     C5    5  -0.115   0.156  -0.088
    1UNL     C6    6  -0.160   0.292  -0.113
    1UNL     O1    7  -0.085   0.370  -0.167
    1UNL     O2    8  -0.288   0.332  -0.067
    1UNL     C7    9  -0.297   0.469  -0.101
    1UNL     C8   10   0.013   0.108  -0.130
    1UNL     N1   11   0.132   0.187  -0.109
    1UNL     C9   12   0.202   0.122   0.000
    1UNL    C10   13   0.316   0.165   0.067
    1UNL    C11   14   0.383   0.075   0.152
    1UNL     O3   15   0.503   0.102   0.220
    1UNL    C12   16   0.533   0.238   0.220
    1UNL    C13   17   0.325  -0.053   0.174
    1UNL    C14   18   0.203  -0.090   0.120
    1UNL    C15   19   0.143  -0.008   0.022
    1UNL    C16   20   0.047  -0.029  -0.101
    1UNL    C17   21   0.106  -0.109  -0.225
    1UNL    C18   22   0.067  -0.261  -0.198
    1UNL     N2   23  -0.050  -0.266  -0.098
    1UNL    C19   24  -0.029  -0.336   0.033
    1UNL    C20   25  -0.095  -0.279   0.158
    1UNL     O4   26  -0.043  -0.157   0.184
    1UNL    C21   27  -0.182  -0.146   0.150
    1UNL    C22   28  -0.088  -0.120  -0.092
    1UNL     H1   29  -0.309  -0.314  -0.021
    1UNL     H2   30  -0.420  -0.287  -0.146
    1UNL     H3   31  -0.249  -0.261  -0.173
    1UNL     H4   32  -0.329  -0.049  -0.136
    1UNL     H5   33  -0.418  -0.069   0.017
    1UNL     H6   34  -0.259   0.133   0.039
    1UNL     H7   35  -0.112   0.084   0.118
    1UNL     H8   36  -0.275   0.479  -0.205
    1UNL     H9   37  -0.400   0.513  -0.090
    1UNL    H10   38  -0.226   0.522  -0.033
    1UNL    H11   39   0.104   0.289  -0.107
    1UNL    H12   40   0.354   0.258   0.036
    1UNL    H13   41   0.582   0.265   0.126
    1UNL    H14   42   0.619   0.249   0.288
    1UNL    H15   43   0.449   0.307   0.226
    1UNL    H16   44   0.377  -0.127   0.239
    1UNL    H17   45   0.163  -0.188   0.134
    1UNL    H18   46   0.213  -0.083  -0.235
    1UNL    H19   47   0.069  -0.074  -0.317
    1UNL    H20   48   0.148  -0.312  -0.162
    1UNL    H21   49   0.035  -0.320  -0.291
    1UNL    H22   50   0.080  -0.338   0.034
    1UNL    H23   51  -0.059  -0.437   0.011
    1UNL    H24   52  -0.096  -0.347   0.250
    1UNL    H25   53  -0.259  -0.127   0.229
    1UNL    H26   54  -0.145  -0.101  -0.192
   0.00000   0.00000   0.00000   0.00000   0.00000   0.00000   0.00000   0.00000   0.00000
Generated with MDTraj, t= 4.0
 54
    1UNL     C1    1  -0.348  -0.272  -0.075
    1UNL     C2    2  -0.332  -0.127  -0.054
    1UNL     C3    3  -0.199  -0.079   0.004
    1UNL     C4    4  -0.209   0.080   0.005
    1UNL     C5    5  -0.117   0.161  -0.092
    1UNL     C6    6  -0.151   0.302  -0.105
    1UNL     O1    7  -0.068   0.380  -0.144
    1UNL     O2    8  -0.285   0.339  -0.068
    1UNL     C7    9  -0.290   0.469  -0.108
    1UNL     C8   10   0.007   0.113  -0.124
    1UNL     N1   11   0.128   0.188  -0.110
    1UNL     C9   12   0.210   0.126  -0.013
    1UNL    C10   13   0.332   0.159   0.042
    1UNL    C11   14   0.403   0.070   0.128
    1UNL     O3   15   0.516   0.104   0.210
    1UNL    C12   16   0.526   0.244   0.243
    1UNL    C13   17   0.334  -0.046   0.169
    1UNL    C14   18   0.205  -0.076   0.118
    1UNL    C15   19   0.152   0.002   0.016
    1UNL    C16   20   0.042  -0.027  -0.091
    1UNL    C17   21   0.109  -0.112  -0.210
    1UNL    C18   22   0.071  -0.253  -0.185
    1UNL     N2   23  -0.042  -0.265  -0.094
    1UNL    C19   24  -0.020  -0.350   0.034
    1UNL    C20   25  -0.121  -0.285   0.140
    1UNL     O4   26  -0.056  -0.171   0.199
    1UNL    C21   27  -0.181  -0.145   0.143
    1UNL    C22   28  -0.087  -0.119  -0.093
    1UNL     H1   29  -0.326  -0.321   0.013
    1UNL     H2   30  -0.441  -0.313  -0.106
    1UNL     H3   31  -0.271  -0.309  -0.151
    1UNL     H4   32  -0.352  -0.064  -0.141
    1UNL     H5   33  -0.409  -0.092   0.024
    1UNL     H6   34  -0.311   0.108  -0.017
    1UNL     H7   35  -0.188   0.125   0.101
    1UNL     H8   36  -0.262   0.479  -0.210
    1UNL     H9   37  -0.399   0.501  -0.103
    1UNL    H10   38  -0.230   0.525  -0.031
    1UNL    H11   39   0.103   0.288  -0.114
    1UNL    H12   40   0.382   0.253   0.018
    1UNL    H13   41   0.518   0.309   0.153
    1UNL    H14   42   0.634   0.259   0.268
    1UNL    H15   43   0.440   0.275   0.306
    1UNL    H16   44   0.369  -0.091   0.256
    1UNL    H17   45   0.147  -0.163   0.152
    1UNL    H18   46   0.215  -0.084  -0.229
    1UNL    H19   47   0.060  -0.087  -0.301
    1UNL    H20   48   0.152  -0.301  -0.140
    1UNL    H21   49   0.042  -0.309  -0.280
    1UNL    H22   50   0.086  -0.359   0.064
    1UNL    H23   51  -0.056  -0.448   0.004
    1UNL    H24   52  -0.151  -0.362   0.214
    1UNL    H25   53  -0.247  -0.110   0.225
    1UNL    H26   54  -0.139  -0.109  -0.199
   0.00000   0.00000   0.00000   0.00000   0.00000   0.00000   0.00000   0.00000   0.00000
Generated with MDTraj, t= 5.0
 54
    1UNL     C1    1  -0.365  -0.279  -0.059
    1UNL     C2    2  -0.347  -0.128  -0.063
    1UNL     C3    3  -0.204  -0.084  -0.010
    1UNL     C4    4  -0.228   0.071  -0.012
    1UNL     C5    5  -0.117   0.150  -0.083
    1UNL     C6    6  -0.144   0.299  -0.095
    1UNL     O1    7  -0.057   0.379  -0.122
    1UNL     O2    8  -0.278   0.334  -0.068
    1UNL     C7    9  -0.278   0.469  -0.098
    1UNL     C8   10   0.007   0.102  -0.122
    1UNL     N1   11   0.125   0.182  -0.105
    1UNL     C9   12   0.206   0.126  -0.006
    1UNL    C10   13   0.321   0.167   0.057
    1UNL    C11   14   0.392   0.081   0.139
    1UNL     O3   15   0.511   0.116   0.203
    1UNL    C12   16   0.511   0.256   0.240
    1UNL    C13   17   0.347  -0.052   0.156
    1UNL    C14   18   0.220  -0.082   0.111
    1UNL    C15   19   0.149   0.001   0.023
    1UNL    C16   20   0.044  -0.036  -0.093
    1UNL    C17   21   0.125  -0.121  -0.205
    1UNL    C18   22   0.070  -0.272  -0.188
    1UNL     N2   23  -0.052  -0.266  -0.096
    1UNL    C19   24  -0.050  -0.351   0.023
    1UNL    C20   25  -0.090  -0.266   0.151
    1UNL     O4   26  -0.037  -0.136   0.169
    1UNL    C21   27  -0.172  -0.129   0.137
    1UNL    C22   28  -0.087  -0.124  -0.099
    1UNL     H1   29  -0.326  -0.307   0.044
    1UNL     H2   30  -0.464  -0.310  -0.068
    1UNL     H3   31  -0.297  -0.320  -0.132
    1UNL     H4   32  -0.363  -0.084  -0.171
    1UNL     H5   33  -0.420  -0.076   0.006
    1UNL     H6   34  -0.329   0.108  -0.052
    1UNL     H7   35  -0.227   0.103   0.091
    1UNL     H8   36  -0.282   0.488  -0.200
    1UNL     H9   37  -0.370   0.513  -0.048
    1UNL    H10   38  -0.189   0.509  -0.043
    1UNL    H11   39   0.102   0.278  -0.087
    1UNL    H12   40   0.367   0.261   0.038
    1UNL    H13   41   0.591   0.313   0.185
    1UNL    H14   42   0.543   0.257   0.345
    1UNL    H15   43   0.403   0.283   0.236
    1UNL    H16   44   0.402  -0.128   0.215
    1UNL    H17   45   0.204  -0.188   0.103
    1UNL    H18   46   0.233  -0.112  -0.186
    1UNL    H19   47   0.105  -0.092  -0.306
    1UNL    H20   48   0.140  -0.339  -0.144
    1UNL    H21   49   0.038  -0.317  -0.285
    1UNL    H22   50   0.052  -0.391   0.027
    1UNL    H23   51  -0.115  -0.436   0.004
    1UNL    H24   52  -0.117  -0.321   0.239
    1UNL    H25   53  -0.227  -0.083   0.223
    1UNL    H26   54  -0.137  -0.120  -0.207
   0.00000   0.00000   0.00000   0.00000   0.00000   0.00000   0.00000   0.00000   0.00000
Generated with MDTraj, t= 6.0
 54
    1UNL     C1    1  -0.317  -0.289  -0.047
    1UNL     C2    2  -0.326  -0.139  -0.047
    1UNL     C3    3  -0.193  -0.076   0.005
    1UNL     C4    4  -0.212   0.080  -0.013
    1UNL     C5    5  -0.117   0.162  -0.082
    1UNL     C6    6  -0.148   0.306  -0.108
    1UNL     O1    7  -0.060   0.378  -0.147
    1UNL     O2    8  -0.279   0.346  -0.082
    1UNL     C7    9  -0.271   0.484  -0.066
    1UNL     C8   10   0.007   0.117  -0.127
    1UNL     N1   11   0.131   0.178  -0.108
    1UNL     C9   12   0.210   0.106  -0.014
    1UNL    C10   13   0.302   0.157   0.074
    1UNL    C11   14   0.374   0.072   0.149
    1UNL     O3   15   0.472   0.111   0.235
    1UNL    C12   16   0.499   0.252   0.229
    1UNL    C13   17   0.331  -0.063   0.156
    1UNL    C14   18   0.225  -0.109   0.077
    1UNL    C15   19   0.159  -0.023  -0.012
    1UNL    C16   20   0.043  -0.033  -0.118
    1UNL    C17   21   0.104  -0.119  -0.243
    1UNL    C18   22   0.071  -0.265  -0.199
    1UNL     N2   23  -0.049  -0.266  -0.100
    1UNL    C19   24  -0.033  -0.327   0.041
    1UNL    C20   25  -0.097  -0.257   0.163
    1UNL     O4   26  -0.044  -0.131   0.199
    1UNL    C21   27  -0.176  -0.125   0.150
    1UNL    C22   28  -0.079  -0.126  -0.094
    1UNL     H1   29  -0.289  -0.329   0.060
    1UNL     H2   30  -0.408  -0.333  -0.078
    1UNL     H3   31  -0.245  -0.315  -0.114
    1UNL     H4   32  -0.333  -0.099  -0.161
    1UNL     H5   33  -0.416  -0.097   0.007
    1UNL     H6   34  -0.314   0.103  -0.064
    1UNL     H7   35  -0.222   0.121   0.086
    1UNL     H8   36  -0.222   0.533  -0.143
    1UNL     H9   37  -0.379   0.515  -0.063
    1UNL    H10   38  -0.224   0.497   0.033
    1UNL    H11   39   0.119   0.275  -0.086
    1UNL    H12   40   0.310   0.262   0.079
    1UNL    H13   41   0.524   0.295   0.126
    1UNL    H14   42   0.593   0.257   0.285
    1UNL    H15   43   0.415   0.287   0.294
    1UNL    H16   44   0.385  -0.134   0.212
    1UNL    H17   45   0.188  -0.208   0.088
    1UNL    H18   46   0.212  -0.109  -0.257
    1UNL    H19   47   0.055  -0.102  -0.338
    1UNL    H20   48   0.157  -0.314  -0.149
    1UNL    H21   49   0.040  -0.330  -0.281
    1UNL    H22   50   0.075  -0.327   0.054
    1UNL    H23   51  -0.060  -0.434   0.038
    1UNL    H24   52  -0.108  -0.317   0.247
    1UNL    H25   53  -0.247  -0.077   0.221
    1UNL    H26   54  -0.142  -0.113  -0.195
   0.00000   0.00000   0.00000   0.00000   0.00000   0.00000   0.00000   0.00000   0.00000
Generated with MDTraj, t= 7.0
 54
    1UNL     C1    1  -0.347  -0.278  -0.048
    1UNL     C2    2  -0.332  -0.136  -0.025
    1UNL     C3    3  -0.190  -0.079  -0.000
    1UNL     C4    4  -0.207   0.079  -0.007
    1UNL     C5    5  -0.116   0.157  -0.095
    1UNL     C6    6  -0.147   0.305  -0.111
    1UNL     O1    7  -0.072   0.373  -0.175
    1UNL     O2    8  -0.266   0.348  -0.042
    1UNL     C7    9  -0.278   0.486  -0.069
    1UNL     C8   10   0.005   0.108  -0.138
    1UNL     N1   11   0.127   0.185  -0.121
    1UNL     C9   12   0.194   0.116  -0.018
    1UNL    C10   13   0.293   0.166   0.062
    1UNL    C11   14   0.356   0.074   0.151
    1UNL     O3   15   0.442   0.112   0.253
    1UNL    C12   16   0.524   0.228   0.248
    1UNL    C13   17   0.317  -0.059   0.153
    1UNL    C14   18   0.212  -0.101   0.080
    1UNL    C15   19   0.149  -0.013  -0.004
    1UNL    C16   20   0.048  -0.039  -0.115
    1UNL    C17   21   0.118  -0.128  -0.219
    1UNL    C18   22   0.078  -0.274  -0.190
    1UNL     N2   23  -0.040  -0.265  -0.102
    1UNL    C19   24  -0.026  -0.337   0.031
    1UNL    C20   25  -0.070  -0.253   0.151
    1UNL     O4   26  -0.013  -0.121   0.172
    1UNL    C21   27  -0.148  -0.126   0.140
    1UNL    C22   28  -0.083  -0.123  -0.099
    1UNL     H1   29  -0.337  -0.335   0.045
    1UNL     H2   30  -0.444  -0.306  -0.087
    1UNL     H3   31  -0.278  -0.317  -0.117
    1UNL     H4   32  -0.395  -0.066  -0.094
    1UNL     H5   33  -0.378  -0.114   0.077
    1UNL     H6   34  -0.317   0.105  -0.037
    1UNL     H7   35  -0.201   0.121   0.092
    1UNL     H8   36  -0.257   0.495  -0.170
    1UNL     H9   37  -0.384   0.520  -0.057
    1UNL    H10   38  -0.204   0.544  -0.011
    1UNL    H11   39   0.106   0.285  -0.104
    1UNL    H12   40   0.317   0.274   0.060
    1UNL    H13   41   0.589   0.215   0.157
    1UNL    H14   42   0.587   0.221   0.333
    1UNL    H15   43   0.457   0.315   0.253
    1UNL    H16   44   0.356  -0.121   0.234
    1UNL    H17   45   0.174  -0.203   0.091
    1UNL    H18   46   0.224  -0.125  -0.205
    1UNL    H19   47   0.092  -0.100  -0.322
    1UNL    H20   48   0.157  -0.332  -0.131
    1UNL    H21   49   0.055  -0.332  -0.276
    1UNL    H22   50   0.072  -0.383   0.051
    1UNL    H23   51  -0.103  -0.416   0.017
    1UNL    H24   52  -0.080  -0.312   0.237
    1UNL    H25   53  -0.223  -0.124   0.221
    1UNL    H26   54  -0.132  -0.106  -0.207
   0.00000   0.00000   0.00000   0.00000   0.00000   0.00000   0.00000   0.00000   0.00000
Generated with MDTraj, t= 8.0
 54
    1UNL     C1    1  -0.349  -0.268  -0.039
    1UNL     C2    2  -0.327  -0.115  -0.043
    1UNL     C3    3  -0.192  -0.075   0.008
    1UNL     C4    4  -0.184   0.078   0.010
    1UNL     C5    5  -0.112   0.158  -0.101
    1UNL     C6    6  -0.151   0.296  -0.128
    1UNL     O1    7  -0.089   0.360  -0.202
    1UNL     O2    8  -0.251   0.341  -0.048
    1UNL     C7    9  -0.278   0.477  -0.066
    1UNL     C8   10   0.017   0.114  -0.134
    1UNL     N1   11   0.121   0.192  -0.083
    1UNL     C9   12   0.210   0.118  -0.012
    1UNL    C10   13   0.311   0.165   0.070
    1UNL    C11   14   0.362   0.077   0.166
    1UNL     O3   15   0.462   0.123   0.252
    1UNL    C12   16   0.515   0.252   0.222
    1UNL    C13   17   0.313  -0.051   0.167
    1UNL    C14   18   0.213  -0.099   0.087
    1UNL    C15   19   0.159  -0.017  -0.006
    1UNL    C16   20   0.057  -0.035  -0.118
    1UNL    C17   21   0.116  -0.117  -0.237
    1UNL    C18   22   0.062  -0.264  -0.211
    1UNL     N2   23  -0.041  -0.256  -0.097
    1UNL    C19   24  -0.042  -0.343   0.023
    1UNL    C20   25  -0.097  -0.282   0.153
    1UNL     O4   26  -0.031  -0.167   0.183
    1UNL    C21   27  -0.166  -0.138   0.150
    1UNL    C22   28  -0.077  -0.115  -0.088
    1UNL     H1   29  -0.364  -0.305   0.051
    1UNL     H2   30  -0.428  -0.298  -0.108
    1UNL     H3   31  -0.259  -0.312  -0.081
    1UNL     H4   32  -0.329  -0.086  -0.149
    1UNL     H5   33  -0.415  -0.061   0.007
    1UNL     H6   34  -0.289   0.122   0.011
    1UNL     H7   35  -0.149   0.109   0.109
    1UNL     H8   36  -0.351   0.478  -0.141
    1UNL     H9   37  -0.319   0.526   0.027
    1UNL    H10   38  -0.188   0.527  -0.104
    1UNL    H11   39   0.103   0.287  -0.046
    1UNL    H12   40   0.346   0.262   0.052
    1UNL    H13   41   0.535   0.234   0.115
    1UNL    H14   42   0.600   0.267   0.282
    1UNL    H15   43   0.445   0.331   0.234
    1UNL    H16   44   0.361  -0.108   0.246
    1UNL    H17   45   0.170  -0.197   0.088
    1UNL    H18   46   0.221  -0.105  -0.234
    1UNL    H19   47   0.083  -0.067  -0.330
    1UNL    H20   48   0.144  -0.341  -0.181
    1UNL    H21   49   0.021  -0.308  -0.297
    1UNL    H22   50   0.063  -0.373   0.034
    1UNL    H23   51  -0.105  -0.433   0.002
    1UNL    H24   52  -0.115  -0.346   0.241
    1UNL    H25   53  -0.252  -0.134   0.220
    1UNL    H26   54  -0.131  -0.103  -0.192
   0.00000   0.00000   0.00000   0.00000   0.00000   0.00000   0.00000   0.00000   0.00000
Generated with MDTraj, t= 9.0
 54
    1UNL     C1    1  -0.366  -0.252  -0.073
    1UNL     C2    2  -0.338  -0.102  -0.034
    1UNL     C3    3  -0.195  -0.077   0.013
    1UNL     C4    4  -0.174   0.081   0.037
    1UNL     C5    5  -0.108   0.161  -0.077
    1UNL     C6    6  -0.150   0.296  -0.121
    1UNL     O1    7  -0.089   0.346  -0.208
    1UNL     O2    8  -0.249   0.339  -0.044
    1UNL     C7    9  -0.283   0.468  -0.086
    1UNL     C8   10   0.009   0.113  -0.133
    1UNL     N1   11   0.124   0.188  -0.113
    1UNL     C9   12   0.202   0.123  -0.013
    1UNL    C10   13   0.318   0.166   0.057
    1UNL    C11   14   0.384   0.079   0.150
    1UNL     O3   15   0.499   0.124   0.219
    1UNL    C12   16   0.520   0.264   0.242
    1UNL    C13   17   0.328  -0.042   0.179
    1UNL    C14   18   0.211  -0.082   0.118
    1UNL    C15   19   0.147  -0.004   0.018
    1UNL    C16   20   0.046  -0.037  -0.098
    1UNL    C17   21   0.128  -0.119  -0.202
    1UNL    C18   22   0.060  -0.254  -0.205
    1UNL     N2   23  -0.052  -0.264  -0.113
    1UNL    C19   24  -0.030  -0.346   0.007
    1UNL    C20   25  -0.104  -0.298   0.133
    1UNL     O4   26  -0.051  -0.177   0.193
    1UNL    C21   27  -0.180  -0.168   0.140
    1UNL    C22   28  -0.087  -0.121  -0.095
    1UNL     H1   29  -0.328  -0.327  -0.004
    1UNL     H2   30  -0.467  -0.274  -0.090
    1UNL     H3   31  -0.319  -0.275  -0.168
    1UNL     H4   32  -0.367  -0.034  -0.107
    1UNL     H5   33  -0.407  -0.083   0.059
    1UNL     H6   34  -0.274   0.124   0.049
    1UNL     H7   35  -0.127   0.106   0.137
    1UNL     H8   36  -0.324   0.461  -0.184
    1UNL     H9   37  -0.348   0.528  -0.015
    1UNL    H10   38  -0.185   0.518  -0.098
    1UNL    H11   39   0.128   0.286  -0.138
    1UNL    H12   40   0.360   0.262   0.029
    1UNL    H13   41   0.540   0.297   0.139
    1UNL    H14   42   0.594   0.274   0.317
    1UNL    H15   43   0.436   0.321   0.273
    1UNL    H16   44   0.381  -0.099   0.252
    1UNL    H17   45   0.153  -0.159   0.161
    1UNL    H18   46   0.231  -0.122  -0.172
    1UNL    H19   47   0.125  -0.062  -0.297
    1UNL    H20   48   0.141  -0.334  -0.188
    1UNL    H21   49   0.017  -0.271  -0.298
    1UNL    H22   50   0.074  -0.328   0.037
    1UNL    H23   51  -0.050  -0.454  -0.015
    1UNL    H24   52  -0.098  -0.374   0.218
    1UNL    H25   53  -0.264  -0.163   0.210
    1UNL    H26   54  -0.137  -0.096  -0.196
   0.00000   0.00000   0.00000   0.00000   0.00000   0.00000   0.00000   0.00000   0.00000
Generated with MDTraj, t= 10.0
 54
    1UNL     C1    1  -0.351  -0.239  -0.118
    1UNL     C2    2  -0.342  -0.103  -0.053
    1UNL     C3    3  -0.197  -0.072   0.011
    1UNL     C4    4  -0.184   0.081   0.042
    1UNL     C5    5  -0.102   0.154  -0.059
    1UNL     C6    6  -0.150   0.295  -0.103
    1UNL     O1    7  -0.082   0.368  -0.169
    1UNL     O2    8  -0.272   0.336  -0.051
    1UNL     C7    9  -0.305   0.468  -0.093
    1UNL     C8   10   0.016   0.102  -0.111
    1UNL     N1   11   0.139   0.168  -0.123
    1UNL     C9   12   0.221   0.102  -0.027
    1UNL    C10   13   0.334   0.154   0.044
    1UNL    C11   14   0.383   0.089   0.158
    1UNL     O3   15   0.501   0.140   0.224
    1UNL    C12   16   0.520   0.278   0.223
    1UNL    C13   17   0.328  -0.042   0.178
    1UNL    C14   18   0.216  -0.087   0.112
    1UNL    C15   19   0.156  -0.014   0.018
    1UNL    C16   20   0.049  -0.047  -0.088
    1UNL    C17   21   0.114  -0.121  -0.209
    1UNL    C18   22   0.059  -0.269  -0.194
    1UNL     N2   23  -0.060  -0.265  -0.104
    1UNL    C19   24  -0.039  -0.353   0.016
    1UNL    C20   25  -0.108  -0.290   0.140
    1UNL     O4   26  -0.041  -0.172   0.182
    1UNL    C21   27  -0.174  -0.146   0.148
    1UNL    C22   28  -0.093  -0.117  -0.091
    1UNL     H1   29  -0.384  -0.327  -0.046
    1UNL     H2   30  -0.425  -0.240  -0.188
    1UNL     H3   31  -0.265  -0.272  -0.170
    1UNL     H4   32  -0.383  -0.030  -0.113
    1UNL     H5   33  -0.412  -0.101   0.041
    1UNL     H6   34  -0.283   0.119   0.052
    1UNL     H7   35  -0.144   0.099   0.150
    1UNL     H8   36  -0.269   0.484  -0.193
    1UNL     H9   37  -0.411   0.502  -0.082
    1UNL    H10   38  -0.246   0.535  -0.027
    1UNL    H11   39   0.137   0.270  -0.129
    1UNL    H12   40   0.374   0.250   0.014
    1UNL    H13   41   0.549   0.307   0.119
    1UNL    H14   42   0.582   0.307   0.305
    1UNL    H15   43   0.425   0.325   0.234
    1UNL    H16   44   0.375  -0.112   0.250
    1UNL    H17   45   0.176  -0.187   0.135
    1UNL    H18   46   0.221  -0.108  -0.210
    1UNL    H19   47   0.073  -0.079  -0.302
    1UNL    H20   48   0.140  -0.344  -0.165
    1UNL    H21   49   0.026  -0.298  -0.290
    1UNL    H22   50   0.063  -0.385   0.039
    1UNL    H23   51  -0.107  -0.440  -0.004
    1UNL    H24   52  -0.131  -0.364   0.225
    1UNL    H25   53  -0.247  -0.133   0.227
    1UNL    H26   54  -0.137  -0.082  -0.188
   0.00000   0.00000   0.00000   0.00000   0.00000   0.00000   0.00000   0.00000   0.00000
Generated with MDTraj, t= 11.0
 54
    1UNL     C1    1  -0.351  -0.256  -0.084
    1UNL     C2    2  -0.327  -0.108  -0.058
    1UNL     C3    3  -0.188  -0.075   0.004
    1UNL     C4    4  -0.180   0.079   0.017
    1UNL     C5    5  -0.105   0.150  -0.085
    1UNL     C6    6  -0.144   0.292  -0.101
    1UNL     O1    7  -0.061   0.377  -0.113
    1UNL     O2    8  -0.280   0.327  -0.085
    1UNL     C7    9  -0.296   0.461  -0.079
    1UNL     C8   10   0.015   0.110  -0.141
    1UNL     N1   11   0.132   0.190  -0.118
    1UNL     C9   12   0.199   0.120  -0.013
    1UNL    C10   13   0.303   0.168   0.064
    1UNL    C11   14   0.372   0.089   0.148
    1UNL     O3   15   0.475   0.130   0.237
    1UNL    C12   16   0.541   0.254   0.208
    1UNL    C13   17   0.328  -0.045   0.162
    1UNL    C14   18   0.229  -0.101   0.076
    1UNL    C15   19   0.157  -0.018  -0.004
    1UNL    C16   20   0.053  -0.037  -0.111
    1UNL    C17   21   0.119  -0.121  -0.231
    1UNL    C18   22   0.067  -0.266  -0.197
    1UNL     N2   23  -0.041  -0.265  -0.092
    1UNL    C19   24  -0.033  -0.337   0.042
    1UNL    C20   25  -0.129  -0.282   0.150
    1UNL     O4   26  -0.066  -0.176   0.216
    1UNL    C21   27  -0.183  -0.135   0.150
    1UNL    C22   28  -0.075  -0.127  -0.097
    1UNL     H1   29  -0.273  -0.326  -0.041
    1UNL     H2   30  -0.447  -0.278  -0.044
    1UNL     H3   31  -0.359  -0.263  -0.189
    1UNL     H4   32  -0.321  -0.061  -0.150
    1UNL     H5   33  -0.422  -0.063  -0.011
    1UNL     H6   34  -0.275   0.123   0.034
    1UNL     H7   35  -0.129   0.102   0.121
    1UNL     H8   36  -0.286   0.512  -0.174
    1UNL     H9   37  -0.395   0.481  -0.035
    1UNL    H10   38  -0.227   0.502  -0.003
    1UNL    H11   39   0.122   0.292  -0.109
    1UNL    H12   40   0.317   0.274   0.069
    1UNL    H13   41   0.563   0.273   0.097
    1UNL    H14   42   0.624   0.269   0.275
    1UNL    H15   43   0.468   0.328   0.238
    1UNL    H16   44   0.367  -0.104   0.239
    1UNL    H17   45   0.195  -0.199   0.096
    1UNL    H18   46   0.228  -0.128  -0.236
    1UNL    H19   47   0.090  -0.079  -0.328
    1UNL    H20   48   0.155  -0.322  -0.155
    1UNL    H21   49   0.037  -0.323  -0.284
    1UNL    H22   50   0.065  -0.322   0.083
    1UNL    H23   51  -0.054  -0.446   0.033
    1UNL    H24   52  -0.165  -0.354   0.230
    1UNL    H25   53  -0.257  -0.092   0.216
    1UNL    H26   54  -0.119  -0.112  -0.194
   0.00000   0.00000   0.00000   0.00000   0.00000   0.00000   0.00000   0.00000   0.00000
Generated with MDTraj, t= 12.0
 54
    1UNL     C1    1  -0.369  -0.276  -0.080
    1UNL     C2    2  -0.337  -0.127  -0.054
    1UNL     C3    3  -0.192  -0.082  -0.005
    1UNL     C4    4  -0.204   0.071   0.009
    1UNL     C5    5  -0.124   0.157  -0.084
    1UNL     C6    6  -0.146   0.302  -0.093
    1UNL     O1    7  -0.059   0.378  -0.129
    1UNL     O2    8  -0.281   0.336  -0.074
    1UNL     C7    9  -0.285   0.471  -0.094
    1UNL     C8   10  -0.004   0.112  -0.131
    1UNL     N1   11   0.120   0.187  -0.102
    1UNL     C9   12   0.200   0.111  -0.010
    1UNL    C10   13   0.317   0.158   0.050
    1UNL    C11   14   0.366   0.074   0.149
    1UNL     O3   15   0.471   0.113   0.233
    1UNL    C12   16   0.537   0.237   0.199
    1UNL    C13   17   0.314  -0.055   0.176
    1UNL    C14   18   0.202  -0.103   0.103
    1UNL    C15   19   0.140  -0.013   0.014
    1UNL    C16   20   0.041  -0.026  -0.103
    1UNL    C17   21   0.125  -0.108  -0.215
    1UNL    C18   22   0.088  -0.257  -0.194
    1UNL     N2   23  -0.025  -0.257  -0.093
    1UNL    C19   24  -0.028  -0.347   0.033
    1UNL    C20   25  -0.081  -0.267   0.157
    1UNL     O4   26  -0.029  -0.135   0.175
    1UNL    C21   27  -0.165  -0.137   0.142
    1UNL    C22   28  -0.079  -0.121  -0.096
    1UNL     H1   29  -0.370  -0.328   0.008
    1UNL     H2   30  -0.470  -0.279  -0.125
    1UNL     H3   31  -0.305  -0.329  -0.146
    1UNL     H4   32  -0.372  -0.070  -0.136
    1UNL     H5   33  -0.400  -0.084   0.026
    1UNL     H6   34  -0.304   0.105   0.013
    1UNL     H7   35  -0.169   0.103   0.115
    1UNL     H8   36  -0.224   0.504  -0.179
    1UNL     H9   37  -0.386   0.509  -0.104
    1UNL    H10   38  -0.252   0.520  -0.001
    1UNL    H11   39   0.114   0.291  -0.087
    1UNL    H12   40   0.361   0.258   0.039
    1UNL    H13   41   0.582   0.247   0.090
    1UNL    H14   42   0.615   0.266   0.272
    1UNL    H15   43   0.462   0.315   0.217
    1UNL    H16   44   0.358  -0.125   0.251
    1UNL    H17   45   0.169  -0.202   0.122
    1UNL    H18   46   0.233  -0.101  -0.200
    1UNL    H19   47   0.108  -0.074  -0.316
    1UNL    H20   48   0.173  -0.315  -0.158
    1UNL    H21   49   0.061  -0.306  -0.292
    1UNL    H22   50   0.073  -0.383   0.062
    1UNL    H23   51  -0.092  -0.435   0.013
    1UNL    H24   52  -0.083  -0.318   0.256
    1UNL    H25   53  -0.227  -0.096   0.222
    1UNL    H26   54  -0.118  -0.114  -0.193
   0.00000   0.00000   0.00000   0.00000   0.00000   0.00000   0.00000   0.00000   0.00000
Generated with MDTraj, t= 13.0
 54
    1UNL     C1    1  -0.332  -0.302  -0.068
    1UNL     C2    2  -0.342  -0.146  -0.061
    1UNL     C3    3  -0.208  -0.076  -0.002
    1UNL     C4    4  -0.221   0.078   0.001
    1UNL     C5    5  -0.120   0.166  -0.082
    1UNL     C6    6  -0.143   0.309  -0.103
    1UNL     O1    7  -0.074   0.386  -0.168
    1UNL     O2    8  -0.275   0.340  -0.066
    1UNL     C7    9  -0.295   0.473  -0.094
    1UNL     C8   10   0.005   0.117  -0.124
    1UNL     N1   11   0.122   0.191  -0.086
    1UNL     C9   12   0.215   0.116  -0.005
    1UNL    C10   13   0.322   0.167   0.066
    1UNL    C11   14   0.381   0.082   0.154
    1UNL     O3   15   0.497   0.108   0.230
    1UNL    C12   16   0.551   0.234   0.216
    1UNL    C13   17   0.330  -0.052   0.169
    1UNL    C14   18   0.219  -0.094   0.103
    1UNL    C15   19   0.154  -0.011   0.016
    1UNL    C16   20   0.049  -0.028  -0.098
    1UNL    C17   21   0.117  -0.114  -0.218
    1UNL    C18   22   0.061  -0.261  -0.198
    1UNL     N2   23  -0.048  -0.259  -0.100
    1UNL    C19   24  -0.028  -0.334   0.031
    1UNL    C20   25  -0.120  -0.274   0.146
    1UNL     O4   26  -0.045  -0.155   0.182
    1UNL    C21   27  -0.178  -0.131   0.145
    1UNL    C22   28  -0.080  -0.116  -0.092
    1UNL     H1   29  -0.256  -0.331  -0.006
    1UNL     H2   30  -0.424  -0.352  -0.034
    1UNL     H3   31  -0.305  -0.347  -0.165
    1UNL     H4   32  -0.368  -0.098  -0.153
    1UNL     H5   33  -0.420  -0.118   0.004
    1UNL     H6   34  -0.319   0.114  -0.025
    1UNL     H7   35  -0.221   0.107   0.108
    1UNL     H8   36  -0.286   0.489  -0.202
    1UNL     H9   37  -0.387   0.512  -0.057
    1UNL    H10   38  -0.221   0.532  -0.041
    1UNL    H11   39   0.101   0.292  -0.073
    1UNL    H12   40   0.363   0.260   0.040
    1UNL    H13   41   0.562   0.275   0.106
    1UNL    H14   42   0.655   0.232   0.253
    1UNL    H15   43   0.501   0.300   0.286
    1UNL    H16   44   0.380  -0.124   0.228
    1UNL    H17   45   0.189  -0.199   0.109
    1UNL    H18   46   0.225  -0.091  -0.214
    1UNL    H19   47   0.087  -0.073  -0.312
    1UNL    H20   48   0.132  -0.335  -0.167
    1UNL    H21   49   0.019  -0.306  -0.296
    1UNL    H22   50   0.078  -0.338   0.063
    1UNL    H23   51  -0.057  -0.440   0.022
    1UNL    H24   52  -0.139  -0.341   0.228
    1UNL    H25   53  -0.235  -0.095   0.232
    1UNL    H26   54  -0.106  -0.104  -0.192
   0.00000   0.00000   0.00000   0.00000   0.00000   0.00000   0.00000   0.00000   0.00000
Generated with MDTraj, t= 14.0
 54
    1UNL     C1    1  -0.367  -0.270  -0.076
    1UNL     C2    2  -0.334  -0.122  -0.065
    1UNL     C3    3  -0.206  -0.076  -0.010
    1UNL     C4    4  -0.202   0.080   0.025
    1UNL     C5    5  -0.119   0.160  -0.081
    1UNL     C6    6  -0.150   0.300  -0.110
    1UNL     O1    7  -0.069   0.371  -0.165
    1UNL     O2    8  -0.276   0.331  -0.079
    1UNL     C7    9  -0.289   0.464  -0.089
    1UNL     C8   10   0.011   0.114  -0.112
    1UNL     N1   11   0.124   0.195  -0.082
    1UNL     C9   12   0.190   0.120   0.015
    1UNL    C10   13   0.301   0.167   0.083
    1UNL    C11   14   0.388   0.078   0.146
    1UNL     O3   15   0.503   0.112   0.216
    1UNL    C12   16   0.537   0.245   0.207
    1UNL    C13   17   0.347  -0.060   0.154
    1UNL    C14   18   0.233  -0.109   0.087
    1UNL    C15   19   0.147  -0.017   0.017
    1UNL    C16   20   0.046  -0.034  -0.090
    1UNL    C17   21   0.122  -0.110  -0.208
    1UNL    C18   22   0.084  -0.256  -0.181
    1UNL     N2   23  -0.044  -0.266  -0.097
    1UNL    C19   24  -0.023  -0.329   0.031
    1UNL    C20   25  -0.100  -0.270   0.149
    1UNL     O4   26  -0.060  -0.143   0.176
    1UNL    C21   27  -0.192  -0.148   0.126
    1UNL    C22   28  -0.085  -0.125  -0.093
    1UNL     H1   29  -0.328  -0.301  -0.187
    1UNL     H2   30  -0.318  -0.327   0.003
    1UNL     H3   31  -0.471  -0.287  -0.067
    1UNL     H4   32  -0.335  -0.085  -0.167
    1UNL     H5   33  -0.406  -0.073  -0.014
    1UNL     H6   34  -0.303   0.115   0.050
    1UNL     H7   35  -0.159   0.082   0.123
    1UNL     H8   36  -0.324   0.490  -0.193
    1UNL     H9   37  -0.356   0.503  -0.016
    1UNL    H10   38  -0.194   0.513  -0.066
    1UNL    H11   39   0.098   0.291  -0.064
    1UNL    H12   40   0.332   0.270   0.070
    1UNL    H13   41   0.598   0.258   0.111
    1UNL    H14   42   0.609   0.274   0.283
    1UNL    H15   43   0.458   0.318   0.221
    1UNL    H16   44   0.385  -0.121   0.238
    1UNL    H17   45   0.203  -0.209   0.109
    1UNL    H18   46   0.228  -0.075  -0.212
    1UNL    H19   47   0.081  -0.081  -0.303
    1UNL    H20   48   0.162  -0.316  -0.143
    1UNL    H21   49   0.051  -0.309  -0.279
    1UNL    H22   50   0.086  -0.324   0.060
    1UNL    H23   51  -0.034  -0.439   0.021
    1UNL    H24   52  -0.114  -0.329   0.235
    1UNL    H25   53  -0.274  -0.118   0.194
    1UNL    H26   54  -0.109  -0.115  -0.194
   0.00000   0.00000   0.00000   0.00000   0.00000   0.00000   0.00000   0.00000   0.00000
Generated with MDTraj, t= 15.0
 54
    1UNL     C1    1  -0.351  -0.266  -0.104
    1UNL     C2    2  -0.334  -0.127  -0.052
    1UNL     C3    3  -0.194  -0.079   0.004
    1UNL     C4    4  -0.195   0.083   0.015
    1UNL     C5    5  -0.109   0.160  -0.082
    1UNL     C6    6  -0.145   0.298  -0.104
    1UNL     O1    7  -0.074   0.386  -0.149
    1UNL     O2    8  -0.274   0.329  -0.072
    1UNL     C7    9  -0.309   0.466  -0.099
    1UNL     C8   10   0.018   0.111  -0.115
    1UNL     N1   11   0.133   0.192  -0.107
    1UNL     C9   12   0.208   0.123  -0.012
    1UNL    C10   13   0.318   0.171   0.053
    1UNL    C11   14   0.372   0.083   0.149
    1UNL     O3   15   0.492   0.111   0.218
    1UNL    C12   16   0.537   0.245   0.220
    1UNL    C13   17   0.323  -0.048   0.168
    1UNL    C14   18   0.212  -0.093   0.099
    1UNL    C15   19   0.150  -0.004   0.015
    1UNL    C16   20   0.047  -0.035  -0.091
    1UNL    C17   21   0.122  -0.117  -0.205
    1UNL    C18   22   0.080  -0.263  -0.177
    1UNL     N2   23  -0.050  -0.263  -0.097
    1UNL    C19   24  -0.064  -0.348   0.026
    1UNL    C20   25  -0.114  -0.280   0.152
    1UNL     O4   26  -0.029  -0.169   0.185
    1UNL    C21   27  -0.163  -0.137   0.148
    1UNL    C22   28  -0.081  -0.115  -0.093
    1UNL     H1   29  -0.463  -0.286  -0.130
    1UNL     H2   30  -0.290  -0.272  -0.198
    1UNL     H3   31  -0.311  -0.351  -0.044
    1UNL     H4   32  -0.365  -0.054  -0.127
    1UNL     H5   33  -0.401  -0.109   0.023
    1UNL     H6   34  -0.302   0.116   0.018
    1UNL     H7   35  -0.169   0.099   0.114
    1UNL     H8   36  -0.273   0.497  -0.202
    1UNL     H9   37  -0.415   0.479  -0.097
    1UNL    H10   38  -0.269   0.531  -0.019
    1UNL    H11   39   0.098   0.280  -0.075
    1UNL    H12   40   0.376   0.257   0.030
    1UNL    H13   41   0.557   0.274   0.116
    1UNL    H14   42   0.638   0.250   0.258
    1UNL    H15   43   0.485   0.317   0.279
    1UNL    H16   44   0.363  -0.111   0.244
    1UNL    H17   45   0.172  -0.192   0.110
    1UNL    H18   46   0.233  -0.106  -0.199
    1UNL    H19   47   0.091  -0.080  -0.301
    1UNL    H20   48   0.153  -0.318  -0.124
    1UNL    H21   49   0.059  -0.327  -0.271
    1UNL    H22   50   0.037  -0.391   0.050
    1UNL    H23   51  -0.121  -0.443   0.012
    1UNL    H24   52  -0.151  -0.341   0.230
    1UNL    H25   53  -0.229  -0.104   0.232
    1UNL    H26   54  -0.116  -0.093  -0.191
   0.00000   0.00000   0.00000   0.00000   0.00000   0.00000   0.00000   0.00000   0.00000
Generated with MDTraj, t= 16.0
 54
    1UNL     C1    1  -0.371  -0.252  -0.101
    1UNL     C2    2  -0.335  -0.111  -0.047
    1UNL     C3    3  -0.185  -0.081   0.013
    1UNL     C4    4  -0.180   0.077   0.029
    1UNL     C5    5  -0.120   0.159  -0.081
    1UNL     C6    6  -0.151   0.300  -0.101
    1UNL     O1    7  -0.068   0.380  -0.146
    1UNL     O2    8  -0.284   0.333  -0.086
    1UNL     C7    9  -0.292   0.475  -0.102
    1UNL     C8   10   0.003   0.115  -0.130
    1UNL     N1   11   0.125   0.185  -0.102
    1UNL     C9   12   0.212   0.107  -0.018
    1UNL    C10   13   0.322   0.155   0.048
    1UNL    C11   14   0.370   0.082   0.155
    1UNL     O3   15   0.471   0.117   0.236
    1UNL    C12   16   0.532   0.241   0.208
    1UNL    C13   17   0.307  -0.040   0.186
    1UNL    C14   18   0.211  -0.090   0.107
    1UNL    C15   19   0.154  -0.021   0.007
    1UNL    C16   20   0.043  -0.032  -0.103
    1UNL    C17   21   0.117  -0.108  -0.220
    1UNL    C18   22   0.073  -0.256  -0.208
    1UNL     N2   23  -0.044  -0.267  -0.106
    1UNL    C19   24  -0.013  -0.338   0.028
    1UNL    C20   25  -0.094  -0.286   0.154
    1UNL     O4   26  -0.035  -0.169   0.214
    1UNL    C21   27  -0.157  -0.145   0.152
    1UNL    C22   28  -0.086  -0.123  -0.099
    1UNL     H1   29  -0.463  -0.250  -0.163
    1UNL     H2   30  -0.282  -0.292  -0.163
    1UNL     H3   31  -0.385  -0.340  -0.023
    1UNL     H4   32  -0.371  -0.034  -0.114
    1UNL     H5   33  -0.398  -0.101   0.036
    1UNL     H6   34  -0.284   0.117   0.044
    1UNL     H7   35  -0.132   0.104   0.114
    1UNL     H8   36  -0.256   0.508  -0.206
    1UNL     H9   37  -0.393   0.502  -0.089
    1UNL    H10   38  -0.235   0.522  -0.020
    1UNL    H11   39   0.125   0.288  -0.096
    1UNL    H12   40   0.376   0.241   0.015
    1UNL    H13   41   0.600   0.223   0.125
    1UNL    H14   42   0.593   0.269   0.292
    1UNL    H15   43   0.471   0.326   0.190
    1UNL    H16   44   0.339  -0.099   0.269
    1UNL    H17   45   0.152  -0.176   0.141
    1UNL    H18   46   0.226  -0.114  -0.197
    1UNL    H19   47   0.097  -0.070  -0.321
    1UNL    H20   48   0.149  -0.317  -0.167
    1UNL    H21   49   0.044  -0.304  -0.308
    1UNL    H22   50   0.095  -0.347   0.056
    1UNL    H23   51  -0.035  -0.449   0.016
    1UNL    H24   52  -0.138  -0.365   0.213
    1UNL    H25   53  -0.244  -0.135   0.219
    1UNL    H26   54  -0.140  -0.104  -0.192
   0.00000   0.00000   0.00000   0.00000   0.00000   0.00000   0.00000   0.00000   0.00000
Generated with MDTraj, t= 17.0
 54
    1UNL     C1    1  -0.372  -0.256  -0.056
    1UNL     C2    2  -0.334  -0.108  -0.053
    1UNL     C3    3  -0.197  -0.081   0.001
    1UNL     C4    4  -0.177   0.070   0.035
    1UNL     C5    5  -0.104   0.153  -0.074
    1UNL     C6    6  -0.129   0.296  -0.091
    1UNL     O1    7  -0.057   0.375  -0.155
    1UNL     O2    8  -0.261   0.323  -0.055
    1UNL     C7    9  -0.293   0.451  -0.100
    1UNL     C8   10   0.009   0.103  -0.140
    1UNL     N1   11   0.133   0.174  -0.116
    1UNL     C9   12   0.201   0.115  -0.007
    1UNL    C10   13   0.302   0.174   0.067
    1UNL    C11   14   0.362   0.098   0.172
    1UNL     O3   15   0.473   0.138   0.244
    1UNL    C12   16   0.547   0.253   0.206
    1UNL    C13   17   0.317  -0.034   0.190
    1UNL    C14   18   0.218  -0.089   0.111
    1UNL    C15   19   0.154  -0.013   0.009
    1UNL    C16   20   0.053  -0.041  -0.106
    1UNL    C17   21   0.121  -0.121  -0.220
    1UNL    C18   22   0.056  -0.265  -0.216
    1UNL     N2   23  -0.057  -0.262  -0.118
    1UNL    C19   24  -0.035  -0.333   0.007
    1UNL    C20   25  -0.095  -0.280   0.137
    1UNL     O4   26  -0.046  -0.159   0.187
    1UNL    C21   27  -0.179  -0.150   0.134
    1UNL    C22   28  -0.087  -0.122  -0.101
    1UNL     H1   29  -0.481  -0.262  -0.086
    1UNL     H2   30  -0.312  -0.315  -0.141
    1UNL     H3   31  -0.354  -0.320   0.034
    1UNL     H4   32  -0.343  -0.073  -0.153
    1UNL     H5   33  -0.411  -0.055   0.001
    1UNL     H6   34  -0.266   0.122   0.078
    1UNL     H7   35  -0.107   0.079   0.113
    1UNL     H8   36  -0.312   0.449  -0.214
    1UNL     H9   37  -0.384   0.468  -0.051
    1UNL    H10   38  -0.216   0.519  -0.065
    1UNL    H11   39   0.129   0.279  -0.116
    1UNL    H12   40   0.327   0.275   0.032
    1UNL    H13   41   0.539   0.273   0.100
    1UNL    H14   42   0.648   0.243   0.248
    1UNL    H15   43   0.504   0.338   0.252
    1UNL    H16   44   0.359  -0.091   0.275
    1UNL    H17   45   0.185  -0.189   0.129
    1UNL    H18   46   0.222  -0.148  -0.184
    1UNL    H19   47   0.115  -0.067  -0.317
    1UNL    H20   48   0.123  -0.347  -0.194
    1UNL    H21   49   0.006  -0.297  -0.313
    1UNL    H22   50   0.075  -0.330   0.022
    1UNL    H23   51  -0.047  -0.446  -0.004
    1UNL    H24   52  -0.128  -0.353   0.215
    1UNL    H25   53  -0.252  -0.121   0.213
    1UNL    H26   54  -0.145  -0.091  -0.193
   0.00000   0.00000   0.00000   0.00000   0.00000   0.00000   0.00000   0.00000   0.00000
Generated with MDTraj, t= 18.0
 54
    1UNL     C1    1  -0.347  -0.275  -0.062
    1UNL     C2    2  -0.332  -0.123  -0.041
    1UNL     C3    3  -0.195  -0.074   0.012
    1UNL     C4    4  -0.195   0.085   0.013
    1UNL     C5    5  -0.105   0.162  -0.088
    1UNL     C6    6  -0.142   0.305  -0.109
    1UNL     O1    7  -0.075   0.385  -0.174
    1UNL     O2    8  -0.261   0.341  -0.060
    1UNL     C7    9  -0.286   0.480  -0.073
    1UNL     C8   10   0.017   0.106  -0.129
    1UNL     N1   11   0.138   0.175  -0.116
    1UNL     C9   12   0.212   0.108  -0.018
    1UNL    C10   13   0.325   0.155   0.048
    1UNL    C11   14   0.367   0.086   0.159
    1UNL     O3   15   0.469   0.143   0.248
    1UNL    C12   16   0.534   0.262   0.211
    1UNL    C13   17   0.304  -0.035   0.190
    1UNL    C14   18   0.204  -0.091   0.116
    1UNL    C15   19   0.144  -0.011   0.017
    1UNL    C16   20   0.051  -0.042  -0.099
    1UNL    C17   21   0.123  -0.119  -0.213
    1UNL    C18   22   0.068  -0.267  -0.200
    1UNL     N2   23  -0.054  -0.263  -0.114
    1UNL    C19   24  -0.056  -0.352   0.005
    1UNL    C20   25  -0.113  -0.290   0.135
    1UNL     O4   26  -0.029  -0.185   0.171
    1UNL    C21   27  -0.158  -0.143   0.148
    1UNL    C22   28  -0.082  -0.119  -0.091
    1UNL     H1   29  -0.444  -0.302  -0.124
    1UNL     H2   30  -0.261  -0.323  -0.118
    1UNL     H3   31  -0.351  -0.337   0.027
    1UNL     H4   32  -0.358  -0.062  -0.122
    1UNL     H5   33  -0.414  -0.100   0.029
    1UNL     H6   34  -0.294   0.136   0.012
    1UNL     H7   35  -0.158   0.109   0.114
    1UNL     H8   36  -0.302   0.506  -0.182
    1UNL     H9   37  -0.377   0.490  -0.022
    1UNL    H10   38  -0.203   0.531  -0.025
    1UNL    H11   39   0.131   0.276  -0.092
    1UNL    H12   40   0.373   0.242   0.013
    1UNL    H13   41   0.605   0.259   0.128
    1UNL    H14   42   0.572   0.287   0.313
    1UNL    H15   43   0.457   0.335   0.187
    1UNL    H16   44   0.354  -0.079   0.271
    1UNL    H17   45   0.169  -0.191   0.141
    1UNL    H18   46   0.233  -0.107  -0.204
    1UNL    H19   47   0.073  -0.071  -0.302
    1UNL    H20   48   0.138  -0.339  -0.155
    1UNL    H21   49   0.039  -0.307  -0.300
    1UNL    H22   50   0.042  -0.399   0.023
    1UNL    H23   51  -0.117  -0.445  -0.026
    1UNL    H24   52  -0.138  -0.365   0.217
    1UNL    H25   53  -0.208  -0.107   0.238
    1UNL    H26   54  -0.143  -0.084  -0.184
   0.00000   0.00000   0.00000   0.00000   0.00000   0.00000   0.00000   0.00000   0.00000
Generated with MDTraj, t= 19.0
 54
    1UNL     C1    1  -0.370  -0.264  -0.095
    1UNL     C2    2  -0.335  -0.123  -0.044
    1UNL     C3    3  -0.193  -0.078   0.004
    1UNL     C4    4  -0.197   0.081   0.015
    1UNL     C5    5  -0.121   0.150  -0.099
    1UNL     C6    6  -0.142   0.298  -0.106
    1UNL     O1    7  -0.058   0.360  -0.175
    1UNL     O2    8  -0.248   0.343  -0.043
    1UNL     C7    9  -0.257   0.488  -0.071
    1UNL     C8   10   0.006   0.109  -0.130
    1UNL     N1   11   0.112   0.191  -0.115
    1UNL     C9   12   0.189   0.122  -0.018
    1UNL    C10   13   0.295   0.169   0.059
    1UNL    C11   14   0.367   0.084   0.144
    1UNL     O3   15   0.474   0.119   0.230
    1UNL    C12   16   0.516   0.259   0.234
    1UNL    C13   17   0.319  -0.050   0.158
    1UNL    C14   18   0.209  -0.097   0.089
    1UNL    C15   19   0.146  -0.013   0.003
    1UNL    C16   20   0.045  -0.036  -0.113
    1UNL    C17   21   0.122  -0.116  -0.219
    1UNL    C18   22   0.085  -0.261  -0.188
    1UNL     N2   23  -0.027  -0.267  -0.089
    1UNL    C19   24  -0.015  -0.347   0.044
    1UNL    C20   25  -0.099  -0.287   0.157
    1UNL     O4   26  -0.045  -0.159   0.189
    1UNL    C21   27  -0.178  -0.151   0.140
    1UNL    C22   28  -0.081  -0.124  -0.095
    1UNL     H1   29  -0.483  -0.265  -0.126
    1UNL     H2   30  -0.311  -0.293  -0.178
    1UNL     H3   31  -0.351  -0.341  -0.018
    1UNL     H4   32  -0.371  -0.058  -0.114
    1UNL     H5   33  -0.403  -0.096   0.040
    1UNL     H6   34  -0.302   0.109   0.013
    1UNL     H7   35  -0.163   0.130   0.113
    1UNL     H8   36  -0.237   0.501  -0.183
    1UNL     H9   37  -0.351   0.531  -0.049
    1UNL    H10   38  -0.173   0.530  -0.018
    1UNL    H11   39   0.091   0.289  -0.090
    1UNL    H12   40   0.313   0.277   0.059
    1UNL    H13   41   0.515   0.314   0.140
    1UNL    H14   42   0.613   0.255   0.294
    1UNL    H15   43   0.440   0.309   0.298
    1UNL    H16   44   0.357  -0.108   0.247
    1UNL    H17   45   0.158  -0.190   0.111
    1UNL    H18   46   0.225  -0.079  -0.204
    1UNL    H19   47   0.078  -0.090  -0.319
    1UNL    H20   48   0.175  -0.314  -0.144
    1UNL    H21   49   0.060  -0.318  -0.278
    1UNL    H22   50   0.090  -0.365   0.074
    1UNL    H23   51  -0.043  -0.458   0.019
    1UNL    H24   52  -0.109  -0.354   0.248
    1UNL    H25   53  -0.244  -0.126   0.222
    1UNL    H26   54  -0.143  -0.123  -0.195
   0.00000   0.00000   0.00000   0.00000   0.00000   0.00000   0.00000   0.00000   0.00000
Generated with MDTraj, t= 20.0
 54
    1UNL     C1    1  -0.326  -0.266  -0.086
    1UNL     C2    2  -0.336  -0.119  -0.074
    1UNL     C3    3  -0.206  -0.071  -0.005
    1UNL     C4    4  -0.195   0.078   0.015
    1UNL     C5    5  -0.111   0.153  -0.090
    1UNL     C6    6  -0.152   0.291  -0.106
    1UNL     O1    7  -0.089   0.361  -0.187
    1UNL     O2    8  -0.255   0.333  -0.032
    1UNL     C7    9  -0.271   0.470  -0.049
    1UNL     C8   10   0.015   0.107  -0.127
    1UNL     N1   11   0.124   0.184  -0.102
    1UNL     C9   12   0.212   0.111  -0.018
    1UNL    C10   13   0.314   0.166   0.061
    1UNL    C11   14   0.379   0.075   0.149
    1UNL     O3   15   0.484   0.120   0.229
    1UNL    C12   16   0.490   0.267   0.237
    1UNL    C13   17   0.337  -0.058   0.155
    1UNL    C14   18   0.225  -0.108   0.088
    1UNL    C15   19   0.166  -0.022   0.001
    1UNL    C16   20   0.056  -0.039  -0.111
    1UNL    C17   21   0.123  -0.134  -0.220
    1UNL    C18   22   0.059  -0.270  -0.194
    1UNL     N2   23  -0.041  -0.252  -0.082
    1UNL    C19   24  -0.050  -0.337   0.044
    1UNL    C20   25  -0.104  -0.260   0.161
    1UNL     O4   26  -0.052  -0.130   0.179
    1UNL    C21   27  -0.185  -0.134   0.137
    1UNL    C22   28  -0.084  -0.115  -0.099
    1UNL     H1   29  -0.418  -0.300  -0.122
    1UNL     H2   30  -0.245  -0.293  -0.154
    1UNL     H3   31  -0.299  -0.315   0.014
    1UNL     H4   32  -0.340  -0.072  -0.165
    1UNL     H5   33  -0.430  -0.082  -0.030
    1UNL     H6   34  -0.292   0.123   0.023
    1UNL     H7   35  -0.152   0.098   0.122
    1UNL     H8   36  -0.309   0.498  -0.153
    1UNL     H9   37  -0.346   0.493   0.023
    1UNL    H10   38  -0.176   0.516  -0.025
    1UNL    H11   39   0.116   0.285  -0.097
    1UNL    H12   40   0.344   0.268   0.046
    1UNL    H13   41   0.535   0.310   0.149
    1UNL    H14   42   0.542   0.292   0.337
    1UNL    H15   43   0.385   0.307   0.236
    1UNL    H16   44   0.385  -0.127   0.213
    1UNL    H17   45   0.197  -0.210   0.091
    1UNL    H18   46   0.230  -0.134  -0.198
    1UNL    H19   47   0.112  -0.109  -0.330
    1UNL    H20   48   0.145  -0.342  -0.168
    1UNL    H21   49   0.016  -0.323  -0.277
    1UNL    H22   50   0.056  -0.366   0.054
    1UNL    H23   51  -0.099  -0.439   0.017
    1UNL    H24   52  -0.126  -0.317   0.254
    1UNL    H25   53  -0.257  -0.105   0.211
    1UNL    H26   54  -0.124  -0.110  -0.210
   0.00000   0.00000   0.00000   0.00000   0.00000   0.00000   0.00000   0.00000   0.00000
Generated with MDTraj, t= 21.0
 54
    1UNL     C1    1  -0.353  -0.274  -0.067
    1UNL     C2    2  -0.346  -0.125  -0.036
    1UNL     C3    3  -0.198  -0.080   0.002
    1UNL     C4    4  -0.209   0.080  -0.010
    1UNL     C5    5  -0.113   0.162  -0.091
    1UNL     C6    6  -0.144   0.302  -0.107
    1UNL     O1    7  -0.067   0.376  -0.173
    1UNL     O2    8  -0.269   0.342  -0.055
    1UNL     C7    9  -0.281   0.482  -0.064
    1UNL     C8   10   0.006   0.110  -0.142
    1UNL     N1   11   0.129   0.181  -0.118
    1UNL     C9   12   0.213   0.112  -0.028
    1UNL    C10   13   0.315   0.160   0.053
    1UNL    C11   14   0.374   0.080   0.150
    1UNL     O3   15   0.493   0.118   0.228
    1UNL    C12   16   0.502   0.255   0.258
    1UNL    C13   17   0.323  -0.047   0.172
    1UNL    C14   18   0.213  -0.093   0.102
    1UNL    C15   19   0.158  -0.015  -0.002
    1UNL    C16   20   0.045  -0.034  -0.109
    1UNL    C17   21   0.123  -0.119  -0.214
    1UNL    C18   22   0.077  -0.266  -0.179
    1UNL     N2   23  -0.050  -0.267  -0.097
    1UNL    C19   24  -0.028  -0.341   0.027
    1UNL    C20   25  -0.108  -0.277   0.141
    1UNL     O4   26  -0.032  -0.163   0.189
    1UNL    C21   27  -0.160  -0.131   0.144
    1UNL    C22   28  -0.091  -0.122  -0.100
    1UNL     H1   29  -0.451  -0.295  -0.088
    1UNL     H2   30  -0.283  -0.311  -0.146
    1UNL     H3   31  -0.326  -0.330   0.025
    1UNL     H4   32  -0.388  -0.066  -0.115
    1UNL     H5   33  -0.410  -0.090   0.045
    1UNL     H6   34  -0.308   0.111  -0.036
    1UNL     H7   35  -0.207   0.115   0.103
    1UNL     H8   36  -0.332   0.514  -0.160
    1UNL     H9   37  -0.351   0.505   0.015
    1UNL    H10   38  -0.184   0.530  -0.045
    1UNL    H11   39   0.136   0.281  -0.139
    1UNL    H12   40   0.350   0.256   0.021
    1UNL    H13   41   0.529   0.295   0.162
    1UNL    H14   42   0.589   0.257   0.331
    1UNL    H15   43   0.407   0.301   0.296
    1UNL    H16   44   0.389  -0.105   0.242
    1UNL    H17   45   0.179  -0.192   0.125
    1UNL    H18   46   0.233  -0.112  -0.215
    1UNL    H19   47   0.098  -0.086  -0.320
    1UNL    H20   48   0.162  -0.332  -0.135
    1UNL    H21   49   0.064  -0.329  -0.265
    1UNL    H22   50   0.082  -0.350   0.043
    1UNL    H23   51  -0.053  -0.451  -0.002
    1UNL    H24   52  -0.159  -0.348   0.207
    1UNL    H25   53  -0.236  -0.117   0.219
    1UNL    H26   54  -0.133  -0.101  -0.206
   0.00000   0.00000   0.00000   0.00000   0.00000   0.00000   0.00000   0.00000   0.00000
Generated with MDTraj, t= 22.0
 54
    1UNL     C1    1  -0.357  -0.277  -0.048
    1UNL     C2    2  -0.330  -0.126  -0.040
    1UNL     C3    3  -0.191  -0.084   0.015
    1UNL     C4    4  -0.194   0.076   0.023
    1UNL     C5    5  -0.116   0.157  -0.078
    1UNL     C6    6  -0.141   0.302  -0.098
    1UNL     O1    7  -0.044   0.375  -0.134
    1UNL     O2    8  -0.271   0.350  -0.080
    1UNL     C7    9  -0.273   0.489  -0.113
    1UNL     C8   10   0.002   0.112  -0.129
    1UNL     N1   11   0.129   0.186  -0.118
    1UNL     C9   12   0.193   0.123  -0.008
    1UNL    C10   13   0.301   0.165   0.068
    1UNL    C11   14   0.357   0.079   0.162
    1UNL     O3   15   0.475   0.118   0.228
    1UNL    C12   16   0.509   0.254   0.221
    1UNL    C13   17   0.309  -0.057   0.170
    1UNL    C14   18   0.207  -0.100   0.085
    1UNL    C15   19   0.147  -0.009   0.003
    1UNL    C16   20   0.045  -0.031  -0.104
    1UNL    C17   21   0.120  -0.112  -0.218
    1UNL    C18   22   0.074  -0.259  -0.197
    1UNL     N2   23  -0.045  -0.264  -0.114
    1UNL    C19   24  -0.031  -0.342   0.017
    1UNL    C20   25  -0.077  -0.282   0.151
    1UNL     O4   26  -0.031  -0.159   0.188
    1UNL    C21   27  -0.169  -0.160   0.145
    1UNL    C22   28  -0.086  -0.119  -0.097
    1UNL     H1   29  -0.435  -0.292  -0.121
    1UNL     H2   30  -0.269  -0.339  -0.070
    1UNL     H3   31  -0.390  -0.312   0.042
    1UNL     H4   32  -0.336  -0.082  -0.144
    1UNL     H5   33  -0.406  -0.075   0.015
    1UNL     H6   34  -0.297   0.107   0.008
    1UNL     H7   35  -0.173   0.114   0.130
    1UNL     H8   36  -0.227   0.505  -0.215
    1UNL     H9   37  -0.377   0.521  -0.121
    1UNL    H10   38  -0.222   0.551  -0.040
    1UNL    H11   39   0.142   0.281  -0.153
    1UNL    H12   40   0.334   0.267   0.043
    1UNL    H13   41   0.535   0.256   0.120
    1UNL    H14   42   0.599   0.267   0.285
    1UNL    H15   43   0.427   0.325   0.246
    1UNL    H16   44   0.360  -0.124   0.234
    1UNL    H17   45   0.170  -0.202   0.082
    1UNL    H18   46   0.230  -0.107  -0.223
    1UNL    H19   47   0.085  -0.070  -0.318
    1UNL    H20   48   0.155  -0.331  -0.155
    1UNL    H21   49   0.054  -0.302  -0.291
    1UNL    H22   50   0.073  -0.384   0.025
    1UNL    H23   51  -0.093  -0.436  -0.007
    1UNL    H24   52  -0.096  -0.351   0.232
    1UNL    H25   53  -0.235  -0.138   0.230
    1UNL    H26   54  -0.139  -0.102  -0.195
   0.00000   0.00000   0.00000   0.00000   0.00000   0.00000   0.00000   0.00000   0.00000
Generated with MDTraj, t= 23.0
 54
    1UNL     C1    1  -0.353  -0.271  -0.074
    1UNL     C2    2  -0.335  -0.121  -0.043
    1UNL     C3    3  -0.199  -0.070   0.013
    1UNL     C4    4  -0.197   0.083   0.013
    1UNL     C5    5  -0.105   0.153  -0.082
    1UNL     C6    6  -0.150   0.291  -0.110
    1UNL     O1    7  -0.063   0.378  -0.122
    1UNL     O2    8  -0.284   0.326  -0.101
    1UNL     C7    9  -0.312   0.462  -0.104
    1UNL     C8   10   0.022   0.109  -0.122
    1UNL     N1   11   0.127   0.190  -0.097
    1UNL     C9   12   0.209   0.116  -0.009
    1UNL    C10   13   0.326   0.162   0.059
    1UNL    C11   14   0.379   0.080   0.162
    1UNL     O3   15   0.469   0.131   0.259
    1UNL    C12   16   0.552   0.244   0.218
    1UNL    C13   17   0.333  -0.052   0.170
    1UNL    C14   18   0.235  -0.102   0.087
    1UNL    C15   19   0.165  -0.018   0.004
    1UNL    C16   20   0.057  -0.039  -0.102
    1UNL    C17   21   0.111  -0.121  -0.226
    1UNL    C18   22   0.051  -0.262  -0.214
    1UNL     N2   23  -0.063  -0.251  -0.112
    1UNL    C19   24  -0.050  -0.333   0.013
    1UNL    C20   25  -0.094  -0.274   0.149
    1UNL     O4   26  -0.037  -0.148   0.193
    1UNL    C21   27  -0.170  -0.144   0.153
    1UNL    C22   28  -0.086  -0.112  -0.086
    1UNL     H1   29  -0.452  -0.311  -0.045
    1UNL     H2   30  -0.328  -0.307  -0.168
    1UNL     H3   31  -0.285  -0.323  -0.016
    1UNL     H4   32  -0.345  -0.063  -0.145
    1UNL     H5   33  -0.414  -0.091   0.021
    1UNL     H6   34  -0.298   0.123  -0.012
    1UNL     H7   35  -0.179   0.125   0.114
    1UNL     H8   36  -0.268   0.509  -0.195
    1UNL     H9   37  -0.421   0.467  -0.123
    1UNL    H10   38  -0.286   0.521  -0.019
    1UNL    H11   39   0.107   0.287  -0.078
    1UNL    H12   40   0.366   0.259   0.053
    1UNL    H13   41   0.597   0.210   0.133
    1UNL    H14   42   0.627   0.267   0.295
    1UNL    H15   43   0.492   0.335   0.203
    1UNL    H16   44   0.373  -0.130   0.233
    1UNL    H17   45   0.207  -0.203   0.089
    1UNL    H18   46   0.222  -0.121  -0.217
    1UNL    H19   47   0.071  -0.069  -0.317
    1UNL    H20   48   0.130  -0.336  -0.175
    1UNL    H21   49   0.012  -0.299  -0.306
    1UNL    H22   50   0.058  -0.370   0.016
    1UNL    H23   51  -0.107  -0.430  -0.003
    1UNL    H24   52  -0.111  -0.348   0.225
    1UNL    H25   53  -0.240  -0.115   0.233
    1UNL    H26   54  -0.139  -0.096  -0.182
   0.00000   0.00000   0.00000   0.00000   0.00000   0.00000   0.00000   0.00000   0.00000
Generated with MDTraj, t= 24.0
 54
    1UNL     C1    1  -0.362  -0.251  -0.078
    1UNL     C2    2  -0.327  -0.108  -0.048
    1UNL     C3    3  -0.185  -0.069   0.000
    1UNL     C4    4  -0.188   0.086   0.017
    1UNL     C5    5  -0.119   0.157  -0.094
    1UNL     C6    6  -0.162   0.302  -0.114
    1UNL     O1    7  -0.074   0.382  -0.144
    1UNL     O2    8  -0.289   0.326  -0.084
    1UNL     C7    9  -0.328   0.453  -0.116
    1UNL     C8   10   0.009   0.111  -0.129
    1UNL     N1   11   0.118   0.189  -0.089
    1UNL     C9   12   0.198   0.118   0.003
    1UNL    C10   13   0.314   0.150   0.064
    1UNL    C11   14   0.382   0.068   0.155
    1UNL     O3   15   0.500   0.090   0.224
    1UNL    C12   16   0.551   0.224   0.204
    1UNL    C13   17   0.315  -0.047   0.190
    1UNL    C14   18   0.201  -0.087   0.123
    1UNL    C15   19   0.143  -0.011   0.022
    1UNL    C16   20   0.051  -0.032  -0.102
    1UNL    C17   21   0.129  -0.111  -0.209
    1UNL    C18   22   0.073  -0.256  -0.200
    1UNL     N2   23  -0.045  -0.254  -0.104
    1UNL    C19   24  -0.021  -0.334   0.016
    1UNL    C20   25  -0.083  -0.281   0.147
    1UNL     O4   26  -0.035  -0.155   0.197
    1UNL    C21   27  -0.164  -0.146   0.137
    1UNL    C22   28  -0.077  -0.108  -0.100
    1UNL     H1   29  -0.457  -0.266  -0.127
    1UNL     H2   30  -0.288  -0.307  -0.120
    1UNL     H3   31  -0.369  -0.298   0.019
    1UNL     H4   32  -0.339  -0.051  -0.152
    1UNL     H5   33  -0.398  -0.073   0.024
    1UNL     H6   34  -0.296   0.124   0.016
    1UNL     H7   35  -0.149   0.114   0.113
    1UNL     H8   36  -0.313   0.465  -0.224
    1UNL     H9   37  -0.435   0.475  -0.100
    1UNL    H10   38  -0.270   0.532  -0.073
    1UNL    H11   39   0.102   0.290  -0.095
    1UNL    H12   40   0.349   0.253   0.060
    1UNL    H13   41   0.539   0.254   0.107
    1UNL    H14   42   0.658   0.229   0.225
    1UNL    H15   43   0.503   0.287   0.281
    1UNL    H16   44   0.366  -0.109   0.266
    1UNL    H17   45   0.156  -0.180   0.153
    1UNL    H18   46   0.237  -0.103  -0.179
    1UNL    H19   47   0.094  -0.063  -0.303
    1UNL    H20   48   0.151  -0.319  -0.148
    1UNL    H21   49   0.043  -0.296  -0.296
    1UNL    H22   50   0.091  -0.337   0.038
    1UNL    H23   51  -0.050  -0.441  -0.014
    1UNL    H24   52  -0.117  -0.350   0.223
    1UNL    H25   53  -0.243  -0.139   0.217
    1UNL    H26   54  -0.118  -0.081  -0.193
   0.00000   0.00000   0.00000   0.00000   0.00000   0.00000   0.00000   0.00000   0.00000
Generated with MDTraj, t= 25.0
 54
    1UNL     C1    1  -0.357  -0.253  -0.082
    1UNL     C2    2  -0.341  -0.108  -0.069
    1UNL     C3    3  -0.208  -0.077   0.006
    1UNL     C4    4  -0.196   0.078   0.026
    1UNL     C5    5  -0.117   0.165  -0.072
    1UNL     C6    6  -0.163   0.292  -0.114
    1UNL     O1    7  -0.086   0.355  -0.188
    1UNL     O2    8  -0.286   0.336  -0.066
    1UNL     C7    9  -0.313   0.462  -0.117
    1UNL     C8   10   0.009   0.123  -0.108
    1UNL     N1   11   0.125   0.201  -0.089
    1UNL     C9   12   0.213   0.124  -0.007
    1UNL    C10   13   0.322   0.167   0.066
    1UNL    C11   14   0.387   0.077   0.150
    1UNL     O3   15   0.501   0.102   0.228
    1UNL    C12   16   0.575   0.216   0.198
    1UNL    C13   17   0.338  -0.055   0.159
    1UNL    C14   18   0.213  -0.087   0.106
    1UNL    C15   19   0.147   0.002   0.020
    1UNL    C16   20   0.048  -0.020  -0.087
    1UNL    C17   21   0.126  -0.092  -0.199
    1UNL    C18   22   0.097  -0.237  -0.176
    1UNL     N2   23  -0.031  -0.252  -0.094
    1UNL    C19   24  -0.030  -0.343   0.020
    1UNL    C20   25  -0.119  -0.296   0.141
    1UNL     O4   26  -0.062  -0.186   0.200
    1UNL    C21   27  -0.189  -0.162   0.137
    1UNL    C22   28  -0.083  -0.113  -0.086
    1UNL     H1   29  -0.439  -0.280  -0.135
    1UNL     H2   30  -0.269  -0.303  -0.123
    1UNL     H3   31  -0.364  -0.295   0.018
    1UNL     H4   32  -0.330  -0.061  -0.176
    1UNL     H5   33  -0.428  -0.070  -0.015
    1UNL     H6   34  -0.306   0.114   0.030
    1UNL     H7   35  -0.165   0.089   0.126
    1UNL     H8   36  -0.311   0.451  -0.226
    1UNL     H9   37  -0.412   0.508  -0.095
    1UNL    H10   38  -0.238   0.533  -0.095
    1UNL    H11   39   0.131   0.302  -0.072
    1UNL    H12   40   0.361   0.267   0.051
    1UNL    H13   41   0.627   0.203   0.107
    1UNL    H14   42   0.643   0.247   0.277
    1UNL    H15   43   0.498   0.297   0.199
    1UNL    H16   44   0.406  -0.122   0.203
    1UNL    H17   45   0.170  -0.187   0.120
    1UNL    H18   46   0.236  -0.070  -0.190
    1UNL    H19   47   0.079  -0.068  -0.297
    1UNL    H20   48   0.178  -0.287  -0.120
    1UNL    H21   49   0.081  -0.296  -0.268
    1UNL    H22   50   0.079  -0.356   0.046
    1UNL    H23   51  -0.073  -0.444  -0.013
    1UNL    H24   52  -0.148  -0.374   0.211
    1UNL    H25   53  -0.269  -0.134   0.209
    1UNL    H26   54  -0.121  -0.086  -0.178
   0.00000   0.00000   0.00000   0.00000   0.00000   0.00000   0.00000   0.00000   0.00000
Generated with MDTraj, t= 26.0
 54
    1UNL     C1    1  -0.330  -0.259  -0.120
    1UNL     C2    2  -0.336  -0.116  -0.062
    1UNL     C3    3  -0.196  -0.073  -0.001
    1UNL     C4    4  -0.199   0.084   0.012
    1UNL     C5    5  -0.112   0.162  -0.078
    1UNL     C6    6  -0.163   0.291  -0.118
    1UNL     O1    7  -0.102   0.364  -0.198
    1UNL     O2    8  -0.280   0.332  -0.051
    1UNL     C7    9  -0.312   0.458  -0.089
    1UNL     C8   10   0.014   0.113  -0.110
    1UNL     N1   11   0.135   0.187  -0.089
    1UNL     C9   12   0.215   0.120   0.016
    1UNL    C10   13   0.313   0.172   0.101
    1UNL    C11   14   0.386   0.075   0.169
    1UNL     O3   15   0.508   0.124   0.225
    1UNL    C12   16   0.572   0.236   0.170
    1UNL    C13   17   0.335  -0.057   0.178
    1UNL    C14   18   0.224  -0.094   0.115
    1UNL    C15   19   0.170  -0.011   0.018
    1UNL    C16   20   0.056  -0.031  -0.086
    1UNL    C17   21   0.123  -0.110  -0.199
    1UNL    C18   22   0.066  -0.256  -0.187
    1UNL     N2   23  -0.055  -0.264  -0.097
    1UNL    C19   24  -0.058  -0.346   0.025
    1UNL    C20   25  -0.124  -0.281   0.146
    1UNL     O4   26  -0.052  -0.158   0.179
    1UNL    C21   27  -0.187  -0.140   0.135
    1UNL    C22   28  -0.082  -0.116  -0.092
    1UNL     H1   29  -0.423  -0.299  -0.120
    1UNL     H2   30  -0.287  -0.268  -0.223
    1UNL     H3   31  -0.272  -0.320  -0.057
    1UNL     H4   32  -0.364  -0.040  -0.142
    1UNL     H5   33  -0.407  -0.102   0.027
    1UNL     H6   34  -0.309   0.117   0.010
    1UNL     H7   35  -0.170   0.103   0.111
    1UNL     H8   36  -0.337   0.457  -0.195
    1UNL     H9   37  -0.400   0.500  -0.033
    1UNL    H10   38  -0.230   0.525  -0.074
    1UNL    H11   39   0.134   0.288  -0.097
    1UNL    H12   40   0.334   0.275   0.092
    1UNL    H13   41   0.573   0.241   0.062
    1UNL    H14   42   0.676   0.236   0.204
    1UNL    H15   43   0.521   0.320   0.222
    1UNL    H16   44   0.373  -0.127   0.257
    1UNL    H17   45   0.184  -0.189   0.134
    1UNL    H18   46   0.235  -0.112  -0.190
    1UNL    H19   47   0.102  -0.056  -0.291
    1UNL    H20   48   0.138  -0.333  -0.161
    1UNL    H21   49   0.025  -0.301  -0.282
    1UNL    H22   50   0.043  -0.388   0.056
    1UNL    H23   51  -0.122  -0.437  -0.004
    1UNL    H24   52  -0.153  -0.335   0.237
    1UNL    H25   53  -0.250  -0.097   0.213
    1UNL    H26   54  -0.121  -0.099  -0.187
   0.00000   0.00000   0.00000   0.00000   0.00000   0.00000   0.00000   0.00000   0.00000
Generated with MDTraj, t= 27.0
 54
    1UNL     C1    1  -0.360  -0.252  -0.110
    1UNL     C2    2  -0.338  -0.111  -0.052
    1UNL     C3    3  -0.194  -0.082   0.009
    1UNL     C4    4  -0.190   0.071   0.020
    1UNL     C5    5  -0.123   0.148  -0.095
    1UNL     C6    6  -0.164   0.292  -0.112
    1UNL     O1    7  -0.079   0.368  -0.164
    1UNL     O2    8  -0.279   0.342  -0.058
    1UNL     C7    9  -0.279   0.474  -0.082
    1UNL     C8   10   0.004   0.109  -0.137
    1UNL     N1   11   0.119   0.187  -0.106
    1UNL     C9   12   0.193   0.119  -0.005
    1UNL    C10   13   0.302   0.163   0.071
    1UNL    C11   14   0.373   0.080   0.159
    1UNL     O3   15   0.487   0.108   0.232
    1UNL    C12   16   0.560   0.223   0.186
    1UNL    C13   17   0.315  -0.047   0.184
    1UNL    C14   18   0.195  -0.079   0.118
    1UNL    C15   19   0.135  -0.006   0.023
    1UNL    C16   20   0.045  -0.035  -0.098
    1UNL    C17   21   0.130  -0.118  -0.204
    1UNL    C18   22   0.081  -0.261  -0.202
    1UNL     N2   23  -0.027  -0.266  -0.099
    1UNL    C19   24   0.007  -0.332   0.031
    1UNL    C20   25  -0.084  -0.274   0.153
    1UNL     O4   26  -0.056  -0.143   0.191
    1UNL    C21   27  -0.184  -0.154   0.145
    1UNL    C22   28  -0.083  -0.124  -0.097
    1UNL     H1   29  -0.445  -0.241  -0.179
    1UNL     H2   30  -0.274  -0.291  -0.163
    1UNL     H3   31  -0.388  -0.316  -0.033
    1UNL     H4   32  -0.355  -0.027  -0.125
    1UNL     H5   33  -0.415  -0.098   0.038
    1UNL     H6   34  -0.294   0.109   0.031
    1UNL     H7   35  -0.138   0.103   0.106
    1UNL     H8   36  -0.288   0.490  -0.190
    1UNL     H9   37  -0.368   0.524  -0.030
    1UNL    H10   38  -0.189   0.518  -0.045
    1UNL    H11   39   0.100   0.287  -0.094
    1UNL    H12   40   0.358   0.252   0.036
    1UNL    H13   41   0.599   0.206   0.083
    1UNL    H14   42   0.651   0.249   0.241
    1UNL    H15   43   0.494   0.314   0.188
    1UNL    H16   44   0.360  -0.112   0.253
    1UNL    H17   45   0.155  -0.178   0.133
    1UNL    H18   46   0.238  -0.110  -0.173
    1UNL    H19   47   0.133  -0.064  -0.299
    1UNL    H20   48   0.151  -0.341  -0.183
    1UNL    H21   49   0.043  -0.298  -0.303
    1UNL    H22   50   0.114  -0.323   0.059
    1UNL    H23   51  -0.006  -0.446   0.021
    1UNL    H24   52  -0.105  -0.349   0.229
    1UNL    H25   53  -0.268  -0.143   0.209
    1UNL    H26   54  -0.126  -0.125  -0.194
   0.00000   0.00000   0.00000   0.00000   0.00000   0.00000   0.00000   0.00000   0.00000
Generated with MDTraj, t= 28.0
 54
    1UNL     C1    1  -0.338  -0.280  -0.058
    1UNL     C2    2  -0.339  -0.133  -0.049
    1UNL     C3    3  -0.196  -0.079   0.000
    1UNL     C4    4  -0.195   0.076   0.012
    1UNL     C5    5  -0.106   0.155  -0.083
    1UNL     C6    6  -0.137   0.298  -0.091
    1UNL     O1    7  -0.056   0.384  -0.130
    1UNL     O2    8  -0.259   0.337  -0.046
    1UNL     C7    9  -0.283   0.472  -0.079
    1UNL     C8   10   0.016   0.107  -0.139
    1UNL     N1   11   0.134   0.178  -0.125
    1UNL     C9   12   0.218   0.114  -0.035
    1UNL    C10   13   0.330   0.157   0.036
    1UNL    C11   14   0.369   0.091   0.155
    1UNL     O3   15   0.462   0.139   0.247
    1UNL    C12   16   0.541   0.243   0.193
    1UNL    C13   17   0.297  -0.018   0.198
    1UNL    C14   18   0.190  -0.073   0.123
    1UNL    C15   19   0.159  -0.010   0.000
    1UNL    C16   20   0.052  -0.039  -0.112
    1UNL    C17   21   0.117  -0.115  -0.238
    1UNL    C18   22   0.081  -0.256  -0.203
    1UNL     N2   23  -0.034  -0.259  -0.104
    1UNL    C19   24  -0.040  -0.345   0.023
    1UNL    C20   25  -0.128  -0.292   0.134
    1UNL     O4   26  -0.063  -0.177   0.198
    1UNL    C21   27  -0.185  -0.147   0.142
    1UNL    C22   28  -0.084  -0.120  -0.094
    1UNL     H1   29  -0.438  -0.311  -0.102
    1UNL     H2   30  -0.263  -0.320  -0.117
    1UNL     H3   31  -0.332  -0.327   0.036
    1UNL     H4   32  -0.350  -0.097  -0.153
    1UNL     H5   33  -0.427  -0.083   0.017
    1UNL     H6   34  -0.290   0.121  -0.001
    1UNL     H7   35  -0.163   0.106   0.110
    1UNL     H8   36  -0.230   0.492  -0.171
    1UNL     H9   37  -0.393   0.502  -0.091
    1UNL    H10   38  -0.240   0.532   0.000
    1UNL    H11   39   0.105   0.277  -0.111
    1UNL    H12   40   0.382   0.244   0.009
    1UNL    H13   41   0.564   0.225   0.083
    1UNL    H14   42   0.643   0.227   0.229
    1UNL    H15   43   0.511   0.349   0.208
    1UNL    H16   44   0.309  -0.060   0.301
    1UNL    H17   45   0.145  -0.167   0.154
    1UNL    H18   46   0.228  -0.104  -0.241
    1UNL    H19   47   0.074  -0.071  -0.328
    1UNL    H20   48   0.166  -0.301  -0.159
    1UNL    H21   49   0.062  -0.325  -0.294
    1UNL    H22   50   0.063  -0.350   0.065
    1UNL    H23   51  -0.070  -0.455   0.008
    1UNL    H24   52  -0.165  -0.367   0.206
    1UNL    H25   53  -0.259  -0.124   0.215
    1UNL    H26   54  -0.122  -0.112  -0.196
   0.00000   0.00000   0.00000   0.00000   0.00000   0.00000   0.00000   0.00000   0.00000
Generated with MDTraj, t= 29.0
 54
    1UNL     C1    1  -0.360  -0.268  -0.072
    1UNL     C2    2  -0.333  -0.118  -0.055
    1UNL     C3    3  -0.195  -0.075  -0.006
    1UNL     C4    4  -0.193   0.081   0.007
    1UNL     C5    5  -0.109   0.156  -0.093
    1UNL     C6    6  -0.131   0.297  -0.096
    1UNL     O1    7  -0.037   0.376  -0.116
    1UNL     O2    8  -0.258   0.333  -0.063
    1UNL     C7    9  -0.258   0.474  -0.051
    1UNL     C8   10   0.007   0.099  -0.134
    1UNL     N1   11   0.133   0.168  -0.127
    1UNL     C9   12   0.201   0.116  -0.016
    1UNL    C10   13   0.304   0.177   0.053
    1UNL    C11   14   0.360   0.107   0.158
    1UNL     O3   15   0.464   0.158   0.246
    1UNL    C12   16   0.520   0.276   0.201
    1UNL    C13   17   0.315  -0.026   0.183
    1UNL    C14   18   0.215  -0.088   0.112
    1UNL    C15   19   0.149  -0.016   0.012
    1UNL    C16   20   0.046  -0.049  -0.104
    1UNL    C17   21   0.123  -0.135  -0.208
    1UNL    C18   22   0.054  -0.282  -0.205
    1UNL     N2   23  -0.060  -0.279  -0.107
    1UNL    C19   24  -0.046  -0.357   0.023
    1UNL    C20   25  -0.100  -0.284   0.144
    1UNL     O4   26  -0.041  -0.157   0.165
    1UNL    C21   27  -0.175  -0.149   0.132
    1UNL    C22   28  -0.087  -0.133  -0.104
    1UNL     H1   29  -0.467  -0.288  -0.095
    1UNL     H2   30  -0.303  -0.313  -0.146
    1UNL     H3   31  -0.337  -0.328   0.015
    1UNL     H4   32  -0.358  -0.058  -0.146
    1UNL     H5   33  -0.407  -0.083   0.025
    1UNL     H6   34  -0.287   0.117   0.013
    1UNL     H7   35  -0.149   0.094   0.106
    1UNL     H8   36  -0.252   0.510  -0.152
    1UNL     H9   37  -0.342   0.518   0.013
    1UNL    H10   38  -0.165   0.492   0.001
    1UNL    H11   39   0.125   0.271  -0.127
    1UNL    H12   40   0.325   0.280   0.026
    1UNL    H13   41   0.595   0.253   0.117
    1UNL    H14   42   0.588   0.303   0.278
    1UNL    H15   43   0.456   0.362   0.171
    1UNL    H16   44   0.363  -0.084   0.259
    1UNL    H17   45   0.191  -0.189   0.139
    1UNL    H18   46   0.227  -0.142  -0.172
    1UNL    H19   47   0.122  -0.105  -0.313
    1UNL    H20   48   0.122  -0.360  -0.188
    1UNL    H21   49   0.016  -0.309  -0.312
    1UNL    H22   50   0.056  -0.396   0.047
    1UNL    H23   51  -0.110  -0.451   0.003
    1UNL    H24   52  -0.129  -0.344   0.231
    1UNL    H25   53  -0.240  -0.113   0.210
    1UNL    H26   54  -0.118  -0.111  -0.211
   0.00000   0.00000   0.00000   0.00000   0.00000   0.00000   0.00000   0.00000   0.00000
Generated with MDTraj, t= 30.0
 54
    1UNL     C1    1  -0.354  -0.265  -0.084
    1UNL     C2    2  -0.340  -0.116  -0.052
    1UNL     C3    3  -0.201  -0.086   0.003
    1UNL     C4    4  -0.199   0.072   0.001
    1UNL     C5    5  -0.104   0.157  -0.090
    1UNL     C6    6  -0.128   0.300  -0.101
    1UNL     O1    7  -0.059   0.369  -0.176
    1UNL     O2    8  -0.244   0.350  -0.042
    1UNL     C7    9  -0.250   0.484  -0.049
    1UNL     C8   10   0.009   0.096  -0.141
    1UNL     N1   11   0.127   0.178  -0.127
    1UNL     C9   12   0.201   0.102  -0.026
    1UNL    C10   13   0.305   0.160   0.049
    1UNL    C11   14   0.358   0.091   0.153
    1UNL     O3   15   0.464   0.138   0.235
    1UNL    C12   16   0.486   0.278   0.236
    1UNL    C13   17   0.314  -0.047   0.177
    1UNL    C14   18   0.211  -0.099   0.099
    1UNL    C15   19   0.150  -0.021   0.005
    1UNL    C16   20   0.045  -0.046  -0.105
    1UNL    C17   21   0.111  -0.124  -0.220
    1UNL    C18   22   0.058  -0.271  -0.203
    1UNL     N2   23  -0.046  -0.272  -0.101
    1UNL    C19   24  -0.011  -0.332   0.028
    1UNL    C20   25  -0.093  -0.272   0.150
    1UNL     O4   26  -0.033  -0.158   0.201
    1UNL    C21   27  -0.168  -0.138   0.149
    1UNL    C22   28  -0.088  -0.135  -0.091
    1UNL     H1   29  -0.449  -0.286  -0.125
    1UNL     H2   30  -0.273  -0.295  -0.153
    1UNL     H3   31  -0.344  -0.329   0.004
    1UNL     H4   32  -0.367  -0.062  -0.150
    1UNL     H5   33  -0.414  -0.086   0.019
    1UNL     H6   34  -0.295   0.099  -0.021
    1UNL     H7   35  -0.189   0.094   0.107
    1UNL     H8   36  -0.221   0.510  -0.148
    1UNL     H9   37  -0.358   0.508  -0.024
    1UNL    H10   38  -0.185   0.513   0.031
    1UNL    H11   39   0.125   0.279  -0.108
    1UNL    H12   40   0.319   0.266   0.031
    1UNL    H13   41   0.518   0.322   0.134
    1UNL    H14   42   0.571   0.289   0.296
    1UNL    H15   43   0.397   0.332   0.268
    1UNL    H16   44   0.373  -0.107   0.242
    1UNL    H17   45   0.160  -0.190   0.128
    1UNL    H18   46   0.222  -0.121  -0.226
    1UNL    H19   47   0.063  -0.090  -0.314
    1UNL    H20   48   0.141  -0.333  -0.181
    1UNL    H21   49   0.015  -0.313  -0.303
    1UNL    H22   50   0.099  -0.328   0.042
    1UNL    H23   51  -0.028  -0.446   0.027
    1UNL    H24   52  -0.126  -0.345   0.226
    1UNL    H25   53  -0.244  -0.111   0.226
    1UNL    H26   54  -0.135  -0.119  -0.197
   0.00000   0.00000   0.00000   0.00000   0.00000   0.00000   0.00000   0.00000   0.00000
Generated with MDTraj, t= 31.0
 54
    1UNL     C1    1  -0.344  -0.283  -0.061
    1UNL     C2    2  -0.323  -0.128  -0.046
    1UNL     C3    3  -0.188  -0.076   0.004
    1UNL     C4    4  -0.189   0.084   0.018
    1UNL     C5    5  -0.107   0.158  -0.081
    1UNL     C6    6  -0.144   0.297  -0.108
    1UNL     O1    7  -0.089   0.351  -0.205
    1UNL     O2    8  -0.240   0.351  -0.023
    1UNL     C7    9  -0.262   0.484  -0.064
    1UNL     C8   10   0.009   0.110  -0.133
    1UNL     N1   11   0.133   0.179  -0.128
    1UNL     C9   12   0.216   0.111  -0.036
    1UNL    C10   13   0.324   0.162   0.037
    1UNL    C11   14   0.366   0.082   0.142
    1UNL     O3   15   0.477   0.118   0.230
    1UNL    C12   16   0.467   0.252   0.277
    1UNL    C13   17   0.305  -0.041   0.162
    1UNL    C14   18   0.198  -0.093   0.092
    1UNL    C15   19   0.151  -0.012  -0.009
    1UNL    C16   20   0.044  -0.031  -0.113
    1UNL    C17   21   0.118  -0.117  -0.224
    1UNL    C18   22   0.079  -0.265  -0.182
    1UNL     N2   23  -0.047  -0.261  -0.098
    1UNL    C19   24  -0.051  -0.344   0.027
    1UNL    C20   25  -0.104  -0.276   0.157
    1UNL     O4   26  -0.030  -0.156   0.189
    1UNL    C21   27  -0.162  -0.134   0.144
    1UNL    C22   28  -0.081  -0.116  -0.100
    1UNL     H1   29  -0.433  -0.306  -0.106
    1UNL     H2   30  -0.260  -0.323  -0.127
    1UNL     H3   31  -0.342  -0.347   0.028
    1UNL     H4   32  -0.338  -0.084  -0.152
    1UNL     H5   33  -0.398  -0.084   0.007
    1UNL     H6   34  -0.291   0.122   0.011
    1UNL     H7   35  -0.152   0.118   0.113
    1UNL     H8   36  -0.251   0.486  -0.169
    1UNL     H9   37  -0.365   0.520  -0.033
    1UNL    H10   38  -0.182   0.537  -0.014
    1UNL    H11   39   0.139   0.276  -0.153
    1UNL    H12   40   0.364   0.260   0.024
    1UNL    H13   41   0.545   0.328   0.244
    1UNL    H14   42   0.490   0.239   0.377
    1UNL    H15   43   0.367   0.292   0.260
    1UNL    H16   44   0.343  -0.106   0.245
    1UNL    H17   45   0.148  -0.186   0.117
    1UNL    H18   46   0.226  -0.102  -0.223
    1UNL    H19   47   0.075  -0.074  -0.317
    1UNL    H20   48   0.162  -0.313  -0.136
    1UNL    H21   49   0.050  -0.327  -0.276
    1UNL    H22   50   0.052  -0.385   0.051
    1UNL    H23   51  -0.108  -0.441   0.007
    1UNL    H24   52  -0.116  -0.338   0.250
    1UNL    H25   53  -0.234  -0.100   0.226
    1UNL    H26   54  -0.140  -0.093  -0.201
   0.00000   0.00000   0.00000   0.00000   0.00000   0.00000   0.00000   0.00000   0.00000
Generated with MDTraj, t= 32.0
 54
    1UNL     C1    1  -0.375  -0.255  -0.047
    1UNL     C2    2  -0.336  -0.105  -0.041
    1UNL     C3    3  -0.190  -0.072   0.005
    1UNL     C4    4  -0.172   0.085   0.016
    1UNL     C5    5  -0.121   0.150  -0.107
    1UNL     C6    6  -0.152   0.295  -0.132
    1UNL     O1    7  -0.075   0.363  -0.201
    1UNL     O2    8  -0.258   0.337  -0.061
    1UNL     C7    9  -0.279   0.479  -0.064
    1UNL     C8   10   0.009   0.111  -0.145
    1UNL     N1   11   0.116   0.191  -0.102
    1UNL     C9   12   0.190   0.125  -0.007
    1UNL    C10   13   0.301   0.165   0.066
    1UNL    C11   14   0.381   0.077   0.147
    1UNL     O3   15   0.482   0.117   0.229
    1UNL    C12   16   0.464   0.249   0.286
    1UNL    C13   17   0.346  -0.061   0.147
    1UNL    C14   18   0.231  -0.104   0.079
    1UNL    C15   19   0.153  -0.017   0.003
    1UNL    C16   20   0.054  -0.035  -0.110
    1UNL    C17   21   0.126  -0.135  -0.221
    1UNL    C18   22   0.079  -0.269  -0.184
    1UNL     N2   23  -0.052  -0.260  -0.098
    1UNL    C19   24  -0.045  -0.342   0.023
    1UNL    C20   25  -0.089  -0.276   0.153
    1UNL     O4   26  -0.022  -0.155   0.182
    1UNL    C21   27  -0.154  -0.139   0.147
    1UNL    C22   28  -0.084  -0.116  -0.102
    1UNL     H1   29  -0.480  -0.276  -0.042
    1UNL     H2   30  -0.326  -0.298  -0.138
    1UNL     H3   31  -0.330  -0.312   0.035
    1UNL     H4   32  -0.370  -0.039  -0.127
    1UNL     H5   33  -0.396  -0.069   0.035
    1UNL     H6   34  -0.266   0.146   0.040
    1UNL     H7   35  -0.100   0.109   0.089
    1UNL     H8   36  -0.360   0.502  -0.130
    1UNL     H9   37  -0.297   0.523   0.039
    1UNL    H10   38  -0.188   0.520  -0.108
    1UNL    H11   39   0.083   0.285  -0.078
    1UNL    H12   40   0.342   0.263   0.047
    1UNL    H13   41   0.429   0.332   0.218
    1UNL    H14   42   0.556   0.279   0.323
    1UNL    H15   43   0.384   0.242   0.357
    1UNL    H16   44   0.396  -0.127   0.208
    1UNL    H17   45   0.212  -0.208   0.078
    1UNL    H18   46   0.231  -0.120  -0.209
    1UNL    H19   47   0.102  -0.099  -0.323
    1UNL    H20   48   0.148  -0.325  -0.122
    1UNL    H21   49   0.070  -0.333  -0.277
    1UNL    H22   50   0.062  -0.377   0.041
    1UNL    H23   51  -0.096  -0.443   0.010
    1UNL    H24   52  -0.095  -0.345   0.241
    1UNL    H25   53  -0.229  -0.119   0.231
    1UNL    H26   54  -0.141  -0.090  -0.203
   0.00000   0.00000   0.00000   0.00000   0.00000   0.00000   0.00000   0.00000   0.00000
Generated with MDTraj, t= 33.0
 54
    1UNL     C1    1  -0.344  -0.278  -0.048
    1UNL     C2    2  -0.326  -0.129  -0.028
    1UNL     C3    3  -0.194  -0.076   0.018
    1UNL     C4    4  -0.192   0.087   0.017
    1UNL     C5    5  -0.118   0.161  -0.101
    1UNL     C6    6  -0.145   0.302  -0.123
    1UNL     O1    7  -0.060   0.377  -0.174
    1UNL     O2    8  -0.272   0.348  -0.081
    1UNL     C7    9  -0.317   0.473  -0.111
    1UNL     C8   10   0.010   0.113  -0.139
    1UNL     N1   11   0.128   0.182  -0.101
    1UNL     C9   12   0.215   0.115  -0.009
    1UNL    C10   13   0.318   0.166   0.069
    1UNL    C11   14   0.385   0.074   0.155
    1UNL     O3   15   0.483   0.104   0.247
    1UNL    C12   16   0.487   0.239   0.286
    1UNL    C13   17   0.332  -0.058   0.157
    1UNL    C14   18   0.228  -0.101   0.076
    1UNL    C15   19   0.168  -0.016  -0.007
    1UNL    C16   20   0.051  -0.034  -0.113
    1UNL    C17   21   0.096  -0.123  -0.233
    1UNL    C18   22   0.043  -0.263  -0.207
    1UNL     N2   23  -0.062  -0.257  -0.097
    1UNL    C19   24  -0.027  -0.331   0.022
    1UNL    C20   25  -0.081  -0.269   0.148
    1UNL     O4   26  -0.021  -0.149   0.183
    1UNL    C21   27  -0.158  -0.131   0.158
    1UNL    C22   28  -0.088  -0.115  -0.087
    1UNL     H1   29  -0.448  -0.305  -0.091
    1UNL     H2   30  -0.267  -0.304  -0.118
    1UNL     H3   31  -0.329  -0.333   0.044
    1UNL     H4   32  -0.342  -0.085  -0.128
    1UNL     H5   33  -0.403  -0.081   0.025
    1UNL     H6   34  -0.303   0.125   0.023
    1UNL     H7   35  -0.146   0.112   0.107
    1UNL     H8   36  -0.418   0.464  -0.148
    1UNL     H9   37  -0.316   0.538  -0.019
    1UNL    H10   38  -0.257   0.513  -0.193
    1UNL    H11   39   0.123   0.282  -0.093
    1UNL    H12   40   0.358   0.264   0.055
    1UNL    H13   41   0.549   0.301   0.218
    1UNL    H14   42   0.538   0.243   0.378
    1UNL    H15   43   0.384   0.276   0.285
    1UNL    H16   44   0.371  -0.128   0.236
    1UNL    H17   45   0.194  -0.204   0.074
    1UNL    H18   46   0.203  -0.121  -0.234
    1UNL    H19   47   0.066  -0.078  -0.331
    1UNL    H20   48   0.124  -0.334  -0.177
    1UNL    H21   49  -0.016  -0.320  -0.283
    1UNL    H22   50   0.085  -0.356   0.031
    1UNL    H23   51  -0.064  -0.438   0.012
    1UNL    H24   52  -0.105  -0.345   0.225
    1UNL    H25   53  -0.233  -0.128   0.241
    1UNL    H26   54  -0.154  -0.093  -0.184
   0.00000   0.00000   0.00000   0.00000   0.00000   0.00000   0.00000   0.00000   0.00000
Generated with MDTraj, t= 34.0
 54
    1UNL     C1    1  -0.341  -0.282  -0.042
    1UNL     C2    2  -0.332  -0.131  -0.021
    1UNL     C3    3  -0.198  -0.077   0.019
    1UNL     C4    4  -0.206   0.084   0.025
    1UNL     C5    5  -0.113   0.165  -0.072
    1UNL     C6    6  -0.143   0.306  -0.097
    1UNL     O1    7  -0.048   0.381  -0.122
    1UNL     O2    8  -0.279   0.332  -0.109
    1UNL     C7    9  -0.313   0.456  -0.158
    1UNL     C8   10   0.006   0.114  -0.115
    1UNL     N1   11   0.132   0.189  -0.111
    1UNL     C9   12   0.213   0.109  -0.017
    1UNL    C10   13   0.321   0.144   0.059
    1UNL    C11   14   0.366   0.055   0.156
    1UNL     O3   15   0.474   0.103   0.239
    1UNL    C12   16   0.493   0.239   0.241
    1UNL    C13   17   0.324  -0.072   0.175
    1UNL    C14   18   0.222  -0.109   0.094
    1UNL    C15   19   0.158  -0.016   0.004
    1UNL    C16   20   0.042  -0.026  -0.100
    1UNL    C17   21   0.108  -0.090  -0.225
    1UNL    C18   22   0.070  -0.243  -0.207
    1UNL     N2   23  -0.051  -0.253  -0.120
    1UNL    C19   24  -0.028  -0.327   0.015
    1UNL    C20   25  -0.082  -0.263   0.148
    1UNL     O4   26  -0.021  -0.140   0.178
    1UNL    C21   27  -0.154  -0.128   0.152
    1UNL    C22   28  -0.089  -0.111  -0.094
    1UNL     H1   29  -0.436  -0.322  -0.096
    1UNL     H2   30  -0.257  -0.311  -0.097
    1UNL     H3   31  -0.333  -0.337   0.055
    1UNL     H4   32  -0.367  -0.074  -0.100
    1UNL     H5   33  -0.400  -0.098   0.054
    1UNL     H6   34  -0.320   0.103   0.011
    1UNL     H7   35  -0.182   0.111   0.124
    1UNL     H8   36  -0.406   0.497  -0.121
    1UNL     H9   37  -0.230   0.527  -0.136
    1UNL    H10   38  -0.327   0.445  -0.267
    1UNL    H11   39   0.130   0.287  -0.089
    1UNL    H12   40   0.367   0.237   0.038
    1UNL    H13   41   0.539   0.274   0.148
    1UNL    H14   42   0.572   0.251   0.314
    1UNL    H15   43   0.397   0.290   0.262
    1UNL    H16   44   0.364  -0.133   0.252
    1UNL    H17   45   0.187  -0.211   0.091
    1UNL    H18   46   0.214  -0.077  -0.236
    1UNL    H19   47   0.060  -0.060  -0.320
    1UNL    H20   48   0.145  -0.310  -0.153
    1UNL    H21   49   0.042  -0.296  -0.299
    1UNL    H22   50   0.072  -0.382   0.022
    1UNL    H23   51  -0.094  -0.420   0.003
    1UNL    H24   52  -0.088  -0.330   0.235
    1UNL    H25   53  -0.218  -0.105   0.235
    1UNL    H26   54  -0.141  -0.086  -0.195
   0.00000   0.00000   0.00000   0.00000   0.00000   0.00000   0.00000   0.00000   0.00000
Generated with MDTraj, t= 35.0
 54
    1UNL     C1    1  -0.367  -0.269  -0.056
    1UNL     C2    2  -0.337  -0.114  -0.047
    1UNL     C3    3  -0.192  -0.074   0.005
    1UNL     C4    4  -0.201   0.087   0.018
    1UNL     C5    5  -0.122   0.156  -0.091
    1UNL     C6    6  -0.161   0.295  -0.109
    1UNL     O1    7  -0.069   0.376  -0.102
    1UNL     O2    8  -0.295   0.339  -0.125
    1UNL     C7    9  -0.311   0.478  -0.151
    1UNL     C8   10   0.006   0.108  -0.119
    1UNL     N1   11   0.118   0.186  -0.085
    1UNL     C9   12   0.202   0.126   0.009
    1UNL    C10   13   0.305   0.177   0.088
    1UNL    C11   14   0.381   0.087   0.156
    1UNL     O3   15   0.493   0.102   0.237
    1UNL    C12   16   0.550   0.231   0.227
    1UNL    C13   17   0.344  -0.052   0.149
    1UNL    C14   18   0.241  -0.102   0.075
    1UNL    C15   19   0.160  -0.011   0.009
    1UNL    C16   20   0.048  -0.035  -0.100
    1UNL    C17   21   0.133  -0.116  -0.209
    1UNL    C18   22   0.072  -0.260  -0.203
    1UNL     N2   23  -0.037  -0.262  -0.101
    1UNL    C19   24  -0.050  -0.349   0.025
    1UNL    C20   25  -0.109  -0.276   0.143
    1UNL     O4   26  -0.029  -0.168   0.188
    1UNL    C21   27  -0.164  -0.130   0.148
    1UNL    C22   28  -0.085  -0.121  -0.091
    1UNL     H1   29  -0.471  -0.298  -0.085
    1UNL     H2   30  -0.292  -0.320  -0.122
    1UNL     H3   31  -0.347  -0.315   0.045
    1UNL     H4   32  -0.365  -0.066  -0.130
    1UNL     H5   33  -0.407  -0.067   0.021
    1UNL     H6   34  -0.304   0.135   0.019
    1UNL     H7   35  -0.153   0.108   0.113
    1UNL     H8   36  -0.384   0.527  -0.091
    1UNL     H9   37  -0.215   0.530  -0.137
    1UNL    H10   38  -0.349   0.492  -0.255
    1UNL    H11   39   0.098   0.284  -0.068
    1UNL    H12   40   0.318   0.285   0.091
    1UNL    H13   41   0.574   0.250   0.122
    1UNL    H14   42   0.644   0.239   0.282
    1UNL    H15   43   0.471   0.308   0.252
    1UNL    H16   44   0.414  -0.110   0.206
    1UNL    H17   45   0.212  -0.204   0.078
    1UNL    H18   46   0.238  -0.120  -0.181
    1UNL    H19   47   0.116  -0.073  -0.308
    1UNL    H20   48   0.146  -0.336  -0.157
    1UNL    H21   49   0.035  -0.293  -0.302
    1UNL    H22   50   0.057  -0.378   0.052
    1UNL    H23   51  -0.089  -0.451  -0.009
    1UNL    H24   52  -0.132  -0.343   0.226
    1UNL    H25   53  -0.222  -0.091   0.226
    1UNL    H26   54  -0.123  -0.101  -0.194
   0.00000   0.00000   0.00000   0.00000   0.00000   0.00000   0.00000   0.00000   0.00000
Generated with MDTraj, t= 36.0
 54
    1UNL     C1    1  -0.341  -0.266  -0.081
    1UNL     C2    2  -0.330  -0.120  -0.061
    1UNL     C3    3  -0.195  -0.073   0.000
    1UNL     C4    4  -0.207   0.080   0.017
    1UNL     C5    5  -0.117   0.163  -0.069
    1UNL     C6    6  -0.157   0.304  -0.112
    1UNL     O1    7  -0.069   0.382  -0.149
    1UNL     O2    8  -0.291   0.324  -0.110
    1UNL     C7    9  -0.332   0.457  -0.120
    1UNL     C8   10   0.009   0.117  -0.104
    1UNL     N1   11   0.121   0.191  -0.087
    1UNL     C9   12   0.207   0.113  -0.003
    1UNL    C10   13   0.315   0.155   0.077
    1UNL    C11   14   0.383   0.066   0.165
    1UNL     O3   15   0.508   0.093   0.215
    1UNL    C12   16   0.549   0.227   0.188
    1UNL    C13   17   0.329  -0.056   0.189
    1UNL    C14   18   0.219  -0.100   0.114
    1UNL    C15   19   0.160  -0.019   0.017
    1UNL    C16   20   0.053  -0.027  -0.088
    1UNL    C17   21   0.122  -0.098  -0.213
    1UNL    C18   22   0.079  -0.245  -0.197
    1UNL     N2   23  -0.036  -0.248  -0.092
    1UNL    C19   24  -0.039  -0.341   0.029
    1UNL    C20   25  -0.112  -0.273   0.148
    1UNL     O4   26  -0.052  -0.152   0.183
    1UNL    C21   27  -0.178  -0.132   0.139
    1UNL    C22   28  -0.075  -0.113  -0.085
    1UNL     H1   29  -0.442  -0.303  -0.097
    1UNL     H2   30  -0.273  -0.289  -0.176
    1UNL     H3   31  -0.292  -0.325   0.003
    1UNL     H4   32  -0.341  -0.074  -0.152
    1UNL     H5   33  -0.417  -0.088  -0.008
    1UNL     H6   34  -0.308   0.115   0.004
    1UNL     H7   35  -0.166   0.116   0.116
    1UNL     H8   36  -0.439   0.463  -0.129
    1UNL     H9   37  -0.302   0.506  -0.028
    1UNL    H10   38  -0.290   0.509  -0.209
    1UNL    H11   39   0.094   0.287  -0.058
    1UNL    H12   40   0.344   0.258   0.079
    1UNL    H13   41   0.560   0.242   0.081
    1UNL    H14   42   0.645   0.262   0.235
    1UNL    H15   43   0.462   0.294   0.216
    1UNL    H16   44   0.375  -0.126   0.263
    1UNL    H17   45   0.173  -0.192   0.148
    1UNL    H18   46   0.229  -0.074  -0.204
    1UNL    H19   47   0.084  -0.056  -0.304
    1UNL    H20   48   0.180  -0.301  -0.172
    1UNL    H21   49   0.042  -0.281  -0.292
    1UNL    H22   50   0.072  -0.361   0.041
    1UNL    H23   51  -0.076  -0.446   0.005
    1UNL    H24   52  -0.127  -0.338   0.233
    1UNL    H25   53  -0.250  -0.106   0.214
    1UNL    H26   54  -0.107  -0.103  -0.189
   0.00000   0.00000   0.00000   0.00000   0.00000   0.00000   0.00000   0.00000   0.00000
Generated with MDTraj, t= 37.0
 54
    1UNL     C1    1  -0.340  -0.273  -0.109
    1UNL     C2    2  -0.338  -0.132  -0.067
    1UNL     C3    3  -0.206  -0.080  -0.001
    1UNL     C4    4  -0.214   0.081   0.014
    1UNL     C5    5  -0.123   0.159  -0.086
    1UNL     C6    6  -0.152   0.303  -0.111
    1UNL     O1    7  -0.076   0.366  -0.187
    1UNL     O2    8  -0.273   0.338  -0.050
    1UNL     C7    9  -0.332   0.450  -0.100
    1UNL     C8   10   0.005   0.117  -0.115
    1UNL     N1   11   0.124   0.189  -0.099
    1UNL     C9   12   0.208   0.123  -0.003
    1UNL    C10   13   0.322   0.166   0.060
    1UNL    C11   14   0.378   0.081   0.151
    1UNL     O3   15   0.497   0.097   0.227
    1UNL    C12   16   0.591   0.189   0.194
    1UNL    C13   17   0.317  -0.037   0.178
    1UNL    C14   18   0.199  -0.079   0.121
    1UNL    C15   19   0.144   0.001   0.030
    1UNL    C16   20   0.045  -0.029  -0.083
    1UNL    C17   21   0.136  -0.107  -0.189
    1UNL    C18   22   0.078  -0.251  -0.190
    1UNL     N2   23  -0.037  -0.259  -0.098
    1UNL    C19   24  -0.009  -0.323   0.033
    1UNL    C20   25  -0.105  -0.272   0.144
    1UNL     O4   26  -0.058  -0.141   0.185
    1UNL    C21   27  -0.193  -0.146   0.143
    1UNL    C22   28  -0.079  -0.113  -0.088
    1UNL     H1   29  -0.435  -0.307  -0.157
    1UNL     H2   30  -0.257  -0.298  -0.183
    1UNL     H3   31  -0.322  -0.346  -0.022
    1UNL     H4   32  -0.364  -0.069  -0.150
    1UNL     H5   33  -0.418  -0.120   0.001
    1UNL     H6   34  -0.309   0.126   0.003
    1UNL     H7   35  -0.174   0.110   0.117
    1UNL     H8   36  -0.302   0.461  -0.204
    1UNL     H9   37  -0.438   0.444  -0.088
    1UNL    H10   38  -0.293   0.539  -0.043
    1UNL    H11   39   0.125   0.292  -0.109
    1UNL    H12   40   0.362   0.263   0.036
    1UNL    H13   41   0.621   0.180   0.093
    1UNL    H14   42   0.683   0.186   0.261
    1UNL    H15   43   0.536   0.288   0.198
    1UNL    H16   44   0.355  -0.103   0.248
    1UNL    H17   45   0.140  -0.160   0.161
    1UNL    H18   46   0.242  -0.092  -0.160
    1UNL    H19   47   0.127  -0.056  -0.283
    1UNL    H20   48   0.167  -0.325  -0.176
    1UNL    H21   49   0.052  -0.270  -0.293
    1UNL    H22   50   0.099  -0.328   0.062
    1UNL    H23   51  -0.029  -0.434   0.011
    1UNL    H24   52  -0.097  -0.334   0.231
    1UNL    H25   53  -0.261  -0.117   0.227
    1UNL    H26   54  -0.120  -0.090  -0.182
   0.00000   0.00000   0.00000   0.00000   0.00000   0.00000   0.00000   0.00000   0.00000
Generated with MDTraj, t= 38.0
 54
    1UNL     C1    1  -0.338  -0.275  -0.095
    1UNL     C2    2  -0.330  -0.118  -0.069
    1UNL     C3    3  -0.201  -0.075  -0.004
    1UNL     C4    4  -0.188   0.079   0.015
    1UNL     C5    5  -0.115   0.159  -0.089
    1UNL     C6    6  -0.155   0.298  -0.114
    1UNL     O1    7  -0.090   0.368  -0.192
    1UNL     O2    8  -0.271   0.346  -0.056
    1UNL     C7    9  -0.287   0.488  -0.064
    1UNL     C8   10   0.008   0.108  -0.127
    1UNL     N1   11   0.119   0.188  -0.094
    1UNL     C9   12   0.205   0.116  -0.003
    1UNL    C10   13   0.306   0.172   0.076
    1UNL    C11   14   0.361   0.091   0.169
    1UNL     O3   15   0.480   0.137   0.227
    1UNL    C12   16   0.567   0.202   0.145
    1UNL    C13   17   0.307  -0.039   0.206
    1UNL    C14   18   0.203  -0.088   0.125
    1UNL    C15   19   0.157  -0.014   0.019
    1UNL    C16   20   0.053  -0.034  -0.092
    1UNL    C17   21   0.134  -0.109  -0.203
    1UNL    C18   22   0.090  -0.258  -0.177
    1UNL     N2   23  -0.039  -0.265  -0.100
    1UNL    C19   24  -0.031  -0.342   0.024
    1UNL    C20   25  -0.117  -0.283   0.143
    1UNL     O4   26  -0.056  -0.169   0.189
    1UNL    C21   27  -0.188  -0.146   0.132
    1UNL    C22   28  -0.074  -0.123  -0.090
    1UNL     H1   29  -0.422  -0.304  -0.176
    1UNL     H2   30  -0.244  -0.318  -0.131
    1UNL     H3   31  -0.362  -0.336  -0.000
    1UNL     H4   32  -0.340  -0.065  -0.166
    1UNL     H5   33  -0.408  -0.086  -0.009
    1UNL     H6   34  -0.285   0.114   0.027
    1UNL     H7   35  -0.129   0.092   0.114
    1UNL     H8   36  -0.252   0.530   0.032
    1UNL     H9   37  -0.222   0.521  -0.141
    1UNL    H10   38  -0.394   0.515  -0.083
    1UNL    H11   39   0.100   0.285  -0.058
    1UNL    H12   40   0.353   0.266   0.045
    1UNL    H13   41   0.552   0.176   0.045
    1UNL    H14   42   0.677   0.185   0.170
    1UNL    H15   43   0.537   0.308   0.154
    1UNL    H16   44   0.356  -0.076   0.301
    1UNL    H17   45   0.160  -0.182   0.153
    1UNL    H18   46   0.244  -0.103  -0.202
    1UNL    H19   47   0.114  -0.077  -0.304
    1UNL    H20   48   0.178  -0.322  -0.133
    1UNL    H21   49   0.081  -0.313  -0.270
    1UNL    H22   50   0.075  -0.348   0.055
    1UNL    H23   51  -0.058  -0.453   0.004
    1UNL    H24   52  -0.133  -0.349   0.226
    1UNL    H25   53  -0.270  -0.122   0.207
    1UNL    H26   54  -0.123  -0.105  -0.178
   0.00000   0.00000   0.00000   0.00000   0.00000   0.00000   0.00000   0.00000   0.00000
Generated with MDTraj, t= 39.0
 54
    1UNL     C1    1  -0.362  -0.283  -0.083
    1UNL     C2    2  -0.336  -0.133  -0.049
    1UNL     C3    3  -0.196  -0.085  -0.010
    1UNL     C4    4  -0.193   0.069   0.008
    1UNL     C5    5  -0.120   0.148  -0.102
    1UNL     C6    6  -0.141   0.290  -0.112
    1UNL     O1    7  -0.056   0.363  -0.164
    1UNL     O2    8  -0.249   0.339  -0.042
    1UNL     C7    9  -0.258   0.481  -0.050
    1UNL     C8   10   0.005   0.109  -0.139
    1UNL     N1   11   0.122   0.189  -0.116
    1UNL     C9   12   0.194   0.127  -0.012
    1UNL    C10   13   0.298   0.186   0.064
    1UNL    C11   14   0.357   0.108   0.162
    1UNL     O3   15   0.474   0.136   0.235
    1UNL    C12   16   0.567   0.228   0.181
    1UNL    C13   17   0.307  -0.017   0.185
    1UNL    C14   18   0.204  -0.074   0.116
    1UNL    C15   19   0.142   0.002   0.013
    1UNL    C16   20   0.045  -0.036  -0.105
    1UNL    C17   21   0.134  -0.119  -0.198
    1UNL    C18   22   0.082  -0.270  -0.184
    1UNL     N2   23  -0.042  -0.264  -0.104
    1UNL    C19   24  -0.052  -0.349   0.017
    1UNL    C20   25  -0.116  -0.287   0.147
    1UNL     O4   26  -0.052  -0.163   0.191
    1UNL    C21   27  -0.177  -0.147   0.135
    1UNL    C22   28  -0.083  -0.126  -0.109
    1UNL     H1   29  -0.479  -0.298  -0.091
    1UNL     H2   30  -0.316  -0.312  -0.180
    1UNL     H3   31  -0.322  -0.355  -0.002
    1UNL     H4   32  -0.361  -0.072  -0.140
    1UNL     H5   33  -0.395  -0.098   0.027
    1UNL     H6   34  -0.289   0.105   0.025
    1UNL     H7   35  -0.130   0.080   0.106
    1UNL     H8   36  -0.356   0.512  -0.094
    1UNL     H9   37  -0.255   0.507   0.052
    1UNL    H10   38  -0.172   0.520  -0.111
    1UNL    H11   39   0.101   0.291  -0.106
    1UNL    H12   40   0.344   0.273   0.023
    1UNL    H13   41   0.591   0.198   0.084
    1UNL    H14   42   0.665   0.234   0.237
    1UNL    H15   43   0.526   0.328   0.171
    1UNL    H16   44   0.348  -0.071   0.264
    1UNL    H17   45   0.186  -0.179   0.137
    1UNL    H18   46   0.241  -0.133  -0.171
    1UNL    H19   47   0.136  -0.083  -0.298
    1UNL    H20   48   0.155  -0.325  -0.113
    1UNL    H21   49   0.077  -0.335  -0.272
    1UNL    H22   50   0.049  -0.383   0.046
    1UNL    H23   51  -0.105  -0.449  -0.010
    1UNL    H24   52  -0.137  -0.352   0.232
    1UNL    H25   53  -0.259  -0.132   0.214
    1UNL    H26   54  -0.133  -0.111  -0.198
   0.00000   0.00000   0.00000   0.00000   0.00000   0.00000   0.00000   0.00000   0.00000
Generated with MDTraj, t= 40.0
 54
    1UNL     C1    1  -0.346  -0.282  -0.072
    1UNL     C2    2  -0.340  -0.138  -0.070
    1UNL     C3    3  -0.206  -0.078  -0.002
    1UNL     C4    4  -0.208   0.073   0.002
    1UNL     C5    5  -0.107   0.153  -0.082
    1UNL     C6    6  -0.132   0.299  -0.095
    1UNL     O1    7  -0.059   0.376  -0.159
    1UNL     O2    8  -0.244   0.347  -0.030
    1UNL     C7    9  -0.271   0.487  -0.046
    1UNL     C8   10   0.016   0.104  -0.133
    1UNL     N1   11   0.138   0.171  -0.123
    1UNL     C9   12   0.220   0.101  -0.034
    1UNL    C10   13   0.331   0.147   0.036
    1UNL    C11   14   0.366   0.083   0.153
    1UNL     O3   15   0.450   0.145   0.242
    1UNL    C12   16   0.502   0.272   0.199
    1UNL    C13   17   0.303  -0.036   0.189
    1UNL    C14   18   0.211  -0.095   0.104
    1UNL    C15   19   0.158  -0.027  -0.002
    1UNL    C16   20   0.052  -0.043  -0.109
    1UNL    C17   21   0.114  -0.123  -0.224
    1UNL    C18   22   0.067  -0.268  -0.199
    1UNL     N2   23  -0.052  -0.271  -0.103
    1UNL    C19   24  -0.032  -0.339   0.033
    1UNL    C20   25  -0.101  -0.268   0.152
    1UNL     O4   26  -0.042  -0.146   0.197
    1UNL    C21   27  -0.174  -0.129   0.145
    1UNL    C22   28  -0.086  -0.122  -0.096
    1UNL     H1   29  -0.437  -0.310  -0.129
    1UNL     H2   30  -0.253  -0.334  -0.122
    1UNL     H3   31  -0.358  -0.325   0.035
    1UNL     H4   32  -0.344  -0.091  -0.171
    1UNL     H5   33  -0.419  -0.101  -0.016
    1UNL     H6   34  -0.299   0.106  -0.042
    1UNL     H7   35  -0.199   0.111   0.110
    1UNL     H8   36  -0.214   0.527  -0.136
    1UNL     H9   37  -0.376   0.494  -0.053
    1UNL    H10   38  -0.227   0.536   0.043
    1UNL    H11   39   0.126   0.275  -0.124
    1UNL    H12   40   0.379   0.239   0.007
    1UNL    H13   41   0.545   0.258   0.105
    1UNL    H14   42   0.590   0.308   0.256
    1UNL    H15   43   0.432   0.353   0.200
    1UNL    H16   44   0.320  -0.075   0.291
    1UNL    H17   45   0.154  -0.182   0.127
    1UNL    H18   46   0.223  -0.108  -0.216
    1UNL    H19   47   0.081  -0.092  -0.322
    1UNL    H20   48   0.141  -0.338  -0.148
    1UNL    H21   49   0.041  -0.310  -0.298
    1UNL    H22   50   0.070  -0.369   0.063
    1UNL    H23   51  -0.083  -0.443   0.024
    1UNL    H24   52  -0.128  -0.337   0.232
    1UNL    H25   53  -0.260  -0.112   0.212
    1UNL    H26   54  -0.131  -0.105  -0.192
   0.00000   0.00000   0.00000   0.00000   0.00000   0.00000   0.00000   0.00000   0.00000
Generated with MDTraj, t= 41.0
 54
    1UNL     C1    1  -0.355  -0.276  -0.065
    1UNL     C2    2  -0.332  -0.123  -0.046
    1UNL     C3    3  -0.192  -0.076   0.005
    1UNL     C4    4  -0.202   0.083   0.006
    1UNL     C5    5  -0.114   0.151  -0.095
    1UNL     C6    6  -0.127   0.299  -0.104
    1UNL     O1    7  -0.035   0.368  -0.149
    1UNL     O2    8  -0.241   0.345  -0.048
    1UNL     C7    9  -0.252   0.485  -0.048
    1UNL     C8   10   0.004   0.092  -0.149
    1UNL     N1   11   0.127   0.165  -0.140
    1UNL     C9   12   0.199   0.115  -0.032
    1UNL    C10   13   0.302   0.170   0.042
    1UNL    C11   14   0.369   0.096   0.148
    1UNL     O3   15   0.481   0.143   0.212
    1UNL    C12   16   0.460   0.263   0.277
    1UNL    C13   17   0.323  -0.039   0.163
    1UNL    C14   18   0.216  -0.091   0.091
    1UNL    C15   19   0.143  -0.012   0.004
    1UNL    C16   20   0.042  -0.046  -0.115
    1UNL    C17   21   0.108  -0.140  -0.217
    1UNL    C18   22   0.053  -0.280  -0.197
    1UNL     N2   23  -0.060  -0.278  -0.097
    1UNL    C19   24  -0.027  -0.334   0.032
    1UNL    C20   25  -0.087  -0.271   0.153
    1UNL     O4   26  -0.035  -0.144   0.183
    1UNL    C21   27  -0.165  -0.137   0.145
    1UNL    C22   28  -0.089  -0.128  -0.097
    1UNL     H1   29  -0.460  -0.285  -0.099
    1UNL     H2   30  -0.285  -0.319  -0.149
    1UNL     H3   31  -0.338  -0.337   0.031
    1UNL     H4   32  -0.334  -0.073  -0.146
    1UNL     H5   33  -0.407  -0.081   0.016
    1UNL     H6   34  -0.305   0.111  -0.017
    1UNL     H7   35  -0.174   0.122   0.107
    1UNL     H8   36  -0.167   0.528   0.015
    1UNL     H9   37  -0.256   0.514  -0.150
    1UNL    H10   38  -0.344   0.507   0.006
    1UNL    H11   39   0.119   0.264  -0.162
    1UNL    H12   40   0.336   0.269   0.028
    1UNL    H13   41   0.520   0.335   0.226
    1UNL    H14   42   0.506   0.259   0.377
    1UNL    H15   43   0.358   0.291   0.286
    1UNL    H16   44   0.372  -0.105   0.232
    1UNL    H17   45   0.193  -0.195   0.101
    1UNL    H18   46   0.216  -0.129  -0.205
    1UNL    H19   47   0.068  -0.101  -0.311
    1UNL    H20   48   0.134  -0.347  -0.159
    1UNL    H21   49  -0.007  -0.315  -0.284
    1UNL    H22   50   0.083  -0.336   0.044
    1UNL    H23   51  -0.051  -0.447   0.039
    1UNL    H24   52  -0.084  -0.336   0.243
    1UNL    H25   53  -0.231  -0.111   0.226
    1UNL    H26   54  -0.128  -0.133  -0.202
   0.00000   0.00000   0.00000   0.00000   0.00000   0.00000   0.00000   0.00000   0.00000
Generated with MDTraj, t= 42.0
 54
    1UNL     C1    1  -0.348  -0.264  -0.046
    1UNL     C2    2  -0.339  -0.108  -0.031
    1UNL     C3    3  -0.192  -0.073   0.015
    1UNL     C4    4  -0.188   0.087   0.015
    1UNL     C5    5  -0.114   0.154  -0.097
    1UNL     C6    6  -0.139   0.291  -0.120
    1UNL     O1    7  -0.061   0.359  -0.188
    1UNL     O2    8  -0.248   0.344  -0.051
    1UNL     C7    9  -0.254   0.485  -0.053
    1UNL     C8   10   0.006   0.103  -0.144
    1UNL     N1   11   0.126   0.179  -0.135
    1UNL     C9   12   0.213   0.116  -0.042
    1UNL    C10   13   0.321   0.167   0.025
    1UNL    C11   14   0.380   0.089   0.128
    1UNL     O3   15   0.478   0.143   0.225
    1UNL    C12   16   0.420   0.235   0.314
    1UNL    C13   17   0.335  -0.043   0.150
    1UNL    C14   18   0.226  -0.097   0.080
    1UNL    C15   19   0.159  -0.009  -0.010
    1UNL    C16   20   0.050  -0.037  -0.111
    1UNL    C17   21   0.106  -0.127  -0.225
    1UNL    C18   22   0.072  -0.273  -0.181
    1UNL     N2   23  -0.057  -0.264  -0.097
    1UNL    C19   24  -0.059  -0.349   0.024
    1UNL    C20   25  -0.093  -0.280   0.156
    1UNL     O4   26  -0.019  -0.165   0.178
    1UNL    C21   27  -0.155  -0.132   0.154
    1UNL    C22   28  -0.091  -0.121  -0.085
    1UNL     H1   29  -0.461  -0.292  -0.041
    1UNL     H2   30  -0.313  -0.309  -0.138
    1UNL     H3   31  -0.297  -0.321   0.037
    1UNL     H4   32  -0.368  -0.056  -0.121
    1UNL     H5   33  -0.404  -0.075   0.052
    1UNL     H6   34  -0.295   0.123   0.023
    1UNL     H7   35  -0.140   0.101   0.113
    1UNL     H8   36  -0.365   0.506  -0.033
    1UNL     H9   37  -0.185   0.522   0.020
    1UNL    H10   38  -0.228   0.518  -0.149
    1UNL    H11   39   0.127   0.279  -0.137
    1UNL    H12   40   0.350   0.271   0.016
    1UNL    H13   41   0.357   0.309   0.264
    1UNL    H14   42   0.507   0.295   0.351
    1UNL    H15   43   0.370   0.185   0.392
    1UNL    H16   44   0.380  -0.100   0.229
    1UNL    H17   45   0.173  -0.187   0.109
    1UNL    H18   46   0.209  -0.100  -0.248
    1UNL    H19   47   0.039  -0.110  -0.310
    1UNL    H20   48   0.151  -0.316  -0.115
    1UNL    H21   49   0.051  -0.346  -0.261
    1UNL    H22   50   0.042  -0.399   0.031
    1UNL    H23   51  -0.125  -0.441   0.004
    1UNL    H24   52  -0.082  -0.342   0.250
    1UNL    H25   53  -0.215  -0.103   0.235
    1UNL    H26   54  -0.135  -0.101  -0.190
   0.00000   0.00000   0.00000   0.00000   0.00000   0.00000   0.00000   0.00000   0.00000
Generated with MDTraj, t= 43.0
 54
    1UNL     C1    1  -0.351  -0.242  -0.025
    1UNL     C2    2  -0.323  -0.095  -0.027
    1UNL     C3    3  -0.176  -0.068   0.022
    1UNL     C4    4  -0.161   0.090   0.030
    1UNL     C5    5  -0.108   0.160  -0.094
    1UNL     C6    6  -0.147   0.299  -0.118
    1UNL     O1    7  -0.099   0.356  -0.215
    1UNL     O2    8  -0.237   0.361  -0.035
    1UNL     C7    9  -0.293   0.481  -0.087
    1UNL     C8   10   0.007   0.104  -0.150
    1UNL     N1   11   0.127   0.182  -0.134
    1UNL     C9   12   0.212   0.107  -0.038
    1UNL    C10   13   0.311   0.157   0.039
    1UNL    C11   14   0.370   0.082   0.135
    1UNL     O3   15   0.473   0.123   0.226
    1UNL    C12   16   0.418   0.212   0.329
    1UNL    C13   17   0.317  -0.052   0.148
    1UNL    C14   18   0.216  -0.105   0.077
    1UNL    C15   19   0.160  -0.020  -0.017
    1UNL    C16   20   0.051  -0.035  -0.121
    1UNL    C17   21   0.109  -0.126  -0.232
    1UNL    C18   22   0.056  -0.270  -0.201
    1UNL     N2   23  -0.043  -0.261  -0.100
    1UNL    C19   24  -0.029  -0.347   0.027
    1UNL    C20   25  -0.087  -0.274   0.157
    1UNL     O4   26  -0.009  -0.162   0.197
    1UNL    C21   27  -0.142  -0.133   0.155
    1UNL    C22   28  -0.079  -0.117  -0.094
    1UNL     H1   29  -0.453  -0.268  -0.075
    1UNL     H2   30  -0.280  -0.303  -0.076
    1UNL     H3   31  -0.354  -0.287   0.075
    1UNL     H4   32  -0.343  -0.054  -0.124
    1UNL     H5   33  -0.391  -0.045   0.049
    1UNL     H6   34  -0.271   0.124   0.049
    1UNL     H7   35  -0.100   0.113   0.116
    1UNL     H8   36  -0.218   0.518  -0.163
    1UNL     H9   37  -0.390   0.467  -0.133
    1UNL    H10   38  -0.300   0.552  -0.009
    1UNL    H11   39   0.121   0.282  -0.125
    1UNL    H12   40   0.329   0.260   0.018
    1UNL    H13   41   0.307   0.215   0.330
    1UNL    H14   42   0.460   0.316   0.309
    1UNL    H15   43   0.453   0.172   0.420
    1UNL    H16   44   0.359  -0.108   0.233
    1UNL    H17   45   0.167  -0.197   0.101
    1UNL    H18   46   0.215  -0.127  -0.213
    1UNL    H19   47   0.092  -0.093  -0.336
    1UNL    H20   48   0.134  -0.339  -0.167
    1UNL    H21   49   0.015  -0.318  -0.295
    1UNL    H22   50   0.077  -0.385   0.045
    1UNL    H23   51  -0.085  -0.443   0.006
    1UNL    H24   52  -0.094  -0.340   0.249
    1UNL    H25   53  -0.215  -0.104   0.226
    1UNL    H26   54  -0.124  -0.090  -0.200
   0.00000   0.00000   0.00000   0.00000   0.00000   0.00000   0.00000   0.00000   0.00000
Generated with MDTraj, t= 44.0
 54
    1UNL     C1    1  -0.373  -0.232  -0.039
    1UNL     C2    2  -0.330  -0.093   0.006
    1UNL     C3    3  -0.176  -0.065   0.022
    1UNL     C4    4  -0.165   0.091   0.038
    1UNL     C5    5  -0.104   0.156  -0.092
    1UNL     C6    6  -0.158   0.284  -0.133
    1UNL     O1    7  -0.101   0.343  -0.224
    1UNL     O2    8  -0.266   0.331  -0.066
    1UNL     C7    9  -0.295   0.464  -0.088
    1UNL     C8   10   0.016   0.111  -0.145
    1UNL     N1   11   0.136   0.177  -0.126
    1UNL     C9   12   0.223   0.104  -0.036
    1UNL    C10   13   0.316   0.161   0.052
    1UNL    C11   14   0.369   0.079   0.155
    1UNL     O3   15   0.480   0.117   0.234
    1UNL    C12   16   0.441   0.212   0.336
    1UNL    C13   17   0.330  -0.058   0.159
    1UNL    C14   18   0.228  -0.106   0.082
    1UNL    C15   19   0.172  -0.023  -0.015
    1UNL    C16   20   0.053  -0.037  -0.117
    1UNL    C17   21   0.104  -0.123  -0.238
    1UNL    C18   22   0.037  -0.261  -0.224
    1UNL     N2   23  -0.066  -0.253  -0.107
    1UNL    C19   24  -0.027  -0.327   0.017
    1UNL    C20   25  -0.069  -0.263   0.155
    1UNL     O4   26  -0.004  -0.144   0.191
    1UNL    C21   27  -0.140  -0.126   0.157
    1UNL    C22   28  -0.088  -0.111  -0.092
    1UNL     H1   29  -0.477  -0.234  -0.063
    1UNL     H2   30  -0.315  -0.266  -0.127
    1UNL     H3   31  -0.350  -0.304   0.040
    1UNL     H4   32  -0.368  -0.030  -0.068
    1UNL     H5   33  -0.381  -0.070   0.106
    1UNL     H6   34  -0.271   0.139   0.057
    1UNL     H7   35  -0.098   0.114   0.118
    1UNL     H8   36  -0.329   0.506   0.010
    1UNL     H9   37  -0.210   0.529  -0.122
    1UNL    H10   38  -0.375   0.476  -0.157
    1UNL    H11   39   0.132   0.280  -0.117
    1UNL    H12   40   0.374   0.250   0.038
    1UNL    H13   41   0.393   0.159   0.424
    1UNL    H14   42   0.378   0.293   0.286
    1UNL    H15   43   0.535   0.254   0.367
    1UNL    H16   44   0.373  -0.123   0.230
    1UNL    H17   45   0.197  -0.209   0.089
    1UNL    H18   46   0.212  -0.132  -0.230
    1UNL    H19   47   0.095  -0.059  -0.329
    1UNL    H20   48   0.115  -0.337  -0.223
    1UNL    H21   49  -0.008  -0.302  -0.320
    1UNL    H22   50   0.085  -0.349   0.016
    1UNL    H23   51  -0.074  -0.429   0.020
    1UNL    H24   52  -0.066  -0.327   0.247
    1UNL    H25   53  -0.201  -0.101   0.245
    1UNL    H26   54  -0.153  -0.086  -0.189
   0.00000   0.00000   0.00000   0.00000   0.00000   0.00000   0.00000   0.00000   0.00000
Generated with MDTraj, t= 45.0
 54
    1UNL     C1    1  -0.355  -0.247  -0.043
    1UNL     C2    2  -0.331  -0.098  -0.010
    1UNL     C3    3  -0.183  -0.057   0.028
    1UNL     C4    4  -0.171   0.097   0.045
    1UNL     C5    5  -0.104   0.162  -0.080
    1UNL     C6    6  -0.153   0.295  -0.123
    1UNL     O1    7  -0.083   0.367  -0.195
    1UNL     O2    8  -0.273   0.333  -0.077
    1UNL     C7    9  -0.328   0.460  -0.128
    1UNL     C8   10   0.021   0.114  -0.135
    1UNL     N1   11   0.139   0.187  -0.109
    1UNL     C9   12   0.214   0.119  -0.012
    1UNL    C10   13   0.322   0.164   0.057
    1UNL    C11   14   0.392   0.067   0.136
    1UNL     O3   15   0.490   0.111   0.225
    1UNL    C12   16   0.447   0.225   0.305
    1UNL    C13   17   0.350  -0.069   0.142
    1UNL    C14   18   0.234  -0.110   0.069
    1UNL    C15   19   0.168  -0.016  -0.009
    1UNL    C16   20   0.056  -0.034  -0.106
    1UNL    C17   21   0.113  -0.126  -0.225
    1UNL    C18   22   0.047  -0.262  -0.207
    1UNL     N2   23  -0.065  -0.258  -0.103
    1UNL    C19   24  -0.058  -0.338   0.013
    1UNL    C20   25  -0.098  -0.274   0.150
    1UNL     O4   26  -0.016  -0.164   0.186
    1UNL    C21   27  -0.151  -0.127   0.167
    1UNL    C22   28  -0.077  -0.110  -0.081
    1UNL     H1   29  -0.448  -0.279  -0.070
    1UNL     H2   30  -0.284  -0.279  -0.124
    1UNL     H3   31  -0.320  -0.303   0.042
    1UNL     H4   32  -0.352  -0.028  -0.084
    1UNL     H5   33  -0.405  -0.075   0.075
    1UNL     H6   34  -0.265   0.157   0.074
    1UNL     H7   35  -0.091   0.119   0.112
    1UNL     H8   36  -0.415   0.443  -0.193
    1UNL     H9   37  -0.368   0.528  -0.046
    1UNL    H10   38  -0.257   0.521  -0.180
    1UNL    H11   39   0.131   0.291  -0.100
    1UNL    H12   40   0.371   0.256   0.027
    1UNL    H13   41   0.503   0.216   0.405
    1UNL    H14   42   0.334   0.230   0.306
    1UNL    H15   43   0.487   0.308   0.249
    1UNL    H16   44   0.401  -0.141   0.208
    1UNL    H17   45   0.191  -0.208   0.081
    1UNL    H18   46   0.221  -0.126  -0.229
    1UNL    H19   47   0.087  -0.068  -0.317
    1UNL    H20   48   0.116  -0.345  -0.198
    1UNL    H21   49   0.015  -0.295  -0.311
    1UNL    H22   50   0.049  -0.375   0.027
    1UNL    H23   51  -0.123  -0.430  -0.003
    1UNL    H24   52  -0.110  -0.351   0.228
    1UNL    H25   53  -0.212  -0.092   0.255
    1UNL    H26   54  -0.136  -0.086  -0.180
   0.00000   0.00000   0.00000   0.00000   0.00000   0.00000   0.00000   0.00000   0.00000
Generated with MDTraj, t= 46.0
 54
    1UNL     C1    1  -0.364  -0.256  -0.037
    1UNL     C2    2  -0.326  -0.111  -0.026
    1UNL     C3    3  -0.186  -0.069   0.016
    1UNL     C4    4  -0.184   0.086   0.040
    1UNL     C5    5  -0.114   0.166  -0.078
    1UNL     C6    6  -0.149   0.305  -0.104
    1UNL     O1    7  -0.066   0.389  -0.142
    1UNL     O2    8  -0.282   0.336  -0.097
    1UNL     C7    9  -0.316   0.460  -0.156
    1UNL     C8   10   0.005   0.122  -0.124
    1UNL     N1   11   0.127   0.193  -0.106
    1UNL     C9   12   0.209   0.114  -0.018
    1UNL    C10   13   0.320   0.153   0.059
    1UNL    C11   14   0.379   0.067   0.153
    1UNL     O3   15   0.494   0.094   0.226
    1UNL    C12   16   0.512   0.229   0.257
    1UNL    C13   17   0.326  -0.061   0.158
    1UNL    C14   18   0.221  -0.101   0.079
    1UNL    C15   19   0.156  -0.019  -0.008
    1UNL    C16   20   0.047  -0.028  -0.106
    1UNL    C17   21   0.099  -0.112  -0.228
    1UNL    C18   22   0.073  -0.259  -0.190
    1UNL     N2   23  -0.042  -0.261  -0.098
    1UNL    C19   24  -0.030  -0.345   0.026
    1UNL    C20   25  -0.097  -0.277   0.150
    1UNL     O4   26  -0.030  -0.157   0.177
    1UNL    C21   27  -0.165  -0.140   0.148
    1UNL    C22   28  -0.085  -0.111  -0.089
    1UNL     H1   29  -0.461  -0.277  -0.074
    1UNL     H2   30  -0.293  -0.311  -0.093
    1UNL     H3   31  -0.358  -0.289   0.063
    1UNL     H4   32  -0.344  -0.067  -0.119
    1UNL     H5   33  -0.397  -0.051   0.040
    1UNL     H6   34  -0.287   0.125   0.039
    1UNL     H7   35  -0.136   0.110   0.134
    1UNL     H8   36  -0.261   0.485  -0.246
    1UNL     H9   37  -0.425   0.454  -0.183
    1UNL    H10   38  -0.309   0.538  -0.080
    1UNL    H11   39   0.113   0.291  -0.071
    1UNL    H12   40   0.360   0.251   0.045
    1UNL    H13   41   0.626   0.225   0.267
    1UNL    H14   42   0.450   0.250   0.347
    1UNL    H15   43   0.486   0.285   0.170
    1UNL    H16   44   0.368  -0.120   0.235
    1UNL    H17   45   0.192  -0.204   0.084
    1UNL    H18   46   0.201  -0.087  -0.255
    1UNL    H19   47   0.032  -0.088  -0.314
    1UNL    H20   48   0.145  -0.329  -0.153
    1UNL    H21   49   0.042  -0.322  -0.279
    1UNL    H22   50   0.077  -0.362   0.056
    1UNL    H23   51  -0.075  -0.448   0.011
    1UNL    H24   52  -0.097  -0.330   0.244
    1UNL    H25   53  -0.227  -0.106   0.236
    1UNL    H26   54  -0.141  -0.085  -0.184
   0.00000   0.00000   0.00000   0.00000   0.00000   0.00000   0.00000   0.00000   0.00000
Generated with MDTraj, t= 47.0
 54
    1UNL     C1    1  -0.343  -0.284  -0.058
    1UNL     C2    2  -0.347  -0.132  -0.034
    1UNL     C3    3  -0.210  -0.071   0.006
    1UNL     C4    4  -0.217   0.082   0.002
    1UNL     C5    5  -0.119   0.154  -0.098
    1UNL     C6    6  -0.147   0.297  -0.110
    1UNL     O1    7  -0.061   0.380  -0.083
    1UNL     O2    8  -0.276   0.331  -0.143
    1UNL     C7    9  -0.303   0.466  -0.124
    1UNL     C8   10   0.012   0.108  -0.127
    1UNL     N1   11   0.123   0.191  -0.089
    1UNL     C9   12   0.199   0.119   0.006
    1UNL    C10   13   0.322   0.160   0.060
    1UNL    C11   14   0.381   0.066   0.147
    1UNL     O3   15   0.495   0.095   0.225
    1UNL    C12   16   0.561   0.222   0.186
    1UNL    C13   17   0.322  -0.054   0.175
    1UNL    C14   18   0.213  -0.094   0.108
    1UNL    C15   19   0.146  -0.005   0.025
    1UNL    C16   20   0.045  -0.033  -0.093
    1UNL    C17   21   0.125  -0.109  -0.200
    1UNL    C18   22   0.057  -0.252  -0.203
    1UNL     N2   23  -0.055  -0.252  -0.103
    1UNL    C19   24  -0.023  -0.324   0.027
    1UNL    C20   25  -0.098  -0.266   0.149
    1UNL     O4   26  -0.032  -0.145   0.188
    1UNL    C21   27  -0.166  -0.124   0.143
    1UNL    C22   28  -0.088  -0.112  -0.093
    1UNL     H1   29  -0.440  -0.327  -0.084
    1UNL     H2   30  -0.279  -0.304  -0.133
    1UNL     H3   31  -0.304  -0.318   0.031
    1UNL     H4   32  -0.388  -0.081  -0.121
    1UNL     H5   33  -0.423  -0.104   0.042
    1UNL     H6   34  -0.316   0.114  -0.013
    1UNL     H7   35  -0.184   0.109   0.103
    1UNL     H8   36  -0.227   0.529  -0.169
    1UNL     H9   37  -0.405   0.484  -0.164
    1UNL    H10   38  -0.311   0.479  -0.016
    1UNL    H11   39   0.111   0.292  -0.072
    1UNL    H12   40   0.352   0.260   0.035
    1UNL    H13   41   0.630   0.250   0.269
    1UNL    H14   42   0.483   0.291   0.165
    1UNL    H15   43   0.618   0.200   0.099
    1UNL    H16   44   0.370  -0.123   0.243
    1UNL    H17   45   0.167  -0.188   0.134
    1UNL    H18   46   0.228  -0.126  -0.167
    1UNL    H19   47   0.115  -0.057  -0.297
    1UNL    H20   48   0.119  -0.334  -0.181
    1UNL    H21   49  -0.006  -0.299  -0.285
    1UNL    H22   50   0.085  -0.310   0.046
    1UNL    H23   51  -0.036  -0.438   0.015
    1UNL    H24   52  -0.102  -0.332   0.232
    1UNL    H25   53  -0.239  -0.096   0.223
    1UNL    H26   54  -0.129  -0.092  -0.194
   0.00000   0.00000   0.00000   0.00000   0.00000   0.00000   0.00000   0.00000   0.00000
Generated with MDTraj, t= 48.0
 54
    1UNL     C1    1  -0.340  -0.303  -0.084
    1UNL     C2    2  -0.336  -0.146  -0.078
    1UNL     C3    3  -0.208  -0.079  -0.012
    1UNL     C4    4  -0.230   0.079  -0.021
    1UNL     C5    5  -0.126   0.159  -0.086
    1UNL     C6    6  -0.153   0.301  -0.091
    1UNL     O1    7  -0.060   0.380  -0.075
    1UNL     O2    8  -0.282   0.336  -0.101
    1UNL     C7    9  -0.286   0.476  -0.130
    1UNL     C8   10   0.005   0.119  -0.105
    1UNL     N1   11   0.124   0.192  -0.082
    1UNL     C9   12   0.213   0.113  -0.005
    1UNL    C10   13   0.321   0.165   0.069
    1UNL    C11   14   0.386   0.085   0.159
    1UNL     O3   15   0.505   0.127   0.219
    1UNL    C12   16   0.592   0.208   0.136
    1UNL    C13   17   0.330  -0.041   0.186
    1UNL    C14   18   0.221  -0.096   0.115
    1UNL    C15   19   0.158  -0.015   0.022
    1UNL    C16   20   0.044  -0.028  -0.084
    1UNL    C17   21   0.118  -0.109  -0.203
    1UNL    C18   22   0.073  -0.254  -0.179
    1UNL     N2   23  -0.048  -0.263  -0.086
    1UNL    C19   24  -0.050  -0.341   0.042
    1UNL    C20   25  -0.118  -0.264   0.156
    1UNL     O4   26  -0.062  -0.140   0.176
    1UNL    C21   27  -0.193  -0.129   0.136
    1UNL    C22   28  -0.086  -0.119  -0.084
    1UNL     H1   29  -0.425  -0.335  -0.140
    1UNL     H2   30  -0.260  -0.353  -0.130
    1UNL     H3   31  -0.351  -0.337   0.012
    1UNL     H4   32  -0.354  -0.100  -0.182
    1UNL     H5   33  -0.424  -0.106  -0.026
    1UNL     H6   34  -0.327   0.093  -0.051
    1UNL     H7   35  -0.224   0.104   0.085
    1UNL     H8   36  -0.239   0.492  -0.225
    1UNL     H9   37  -0.390   0.511  -0.126
    1UNL    H10   38  -0.228   0.525  -0.051
    1UNL    H11   39   0.128   0.292  -0.070
    1UNL    H12   40   0.337   0.272   0.065
    1UNL    H13   41   0.690   0.159   0.135
    1UNL    H14   42   0.588   0.302   0.182
    1UNL    H15   43   0.563   0.211   0.034
    1UNL    H16   44   0.389  -0.100   0.255
    1UNL    H17   45   0.183  -0.197   0.123
    1UNL    H18   46   0.223  -0.093  -0.180
    1UNL    H19   47   0.089  -0.079  -0.307
    1UNL    H20   48   0.147  -0.310  -0.133
    1UNL    H21   49   0.050  -0.305  -0.276
    1UNL    H22   50   0.053  -0.371   0.064
    1UNL    H23   51  -0.104  -0.440   0.020
    1UNL    H24   52  -0.128  -0.317   0.248
    1UNL    H25   53  -0.266  -0.098   0.211
    1UNL    H26   54  -0.119  -0.108  -0.186
   0.00000   0.00000   0.00000   0.00000   0.00000   0.00000   0.00000   0.00000   0.00000
Generated with MDTraj, t= 49.0
 54
    1UNL     C1    1  -0.334  -0.292  -0.093
    1UNL     C2    2  -0.336  -0.145  -0.085
    1UNL     C3    3  -0.205  -0.086  -0.012
    1UNL     C4    4  -0.221   0.072  -0.011
    1UNL     C5    5  -0.119   0.162  -0.090
    1UNL     C6    6  -0.148   0.308  -0.100
    1UNL     O1    7  -0.066   0.391  -0.140
    1UNL     O2    8  -0.276   0.344  -0.068
    1UNL     C7    9  -0.307   0.483  -0.097
    1UNL     C8   10   0.005   0.117  -0.123
    1UNL     N1   11   0.122   0.190  -0.095
    1UNL     C9   12   0.195   0.129   0.003
    1UNL    C10   13   0.311   0.162   0.069
    1UNL    C11   14   0.378   0.068   0.152
    1UNL     O3   15   0.505   0.102   0.200
    1UNL    C12   16   0.588   0.186   0.126
    1UNL    C13   17   0.322  -0.058   0.177
    1UNL    C14   18   0.199  -0.088   0.124
    1UNL    C15   19   0.143  -0.000   0.036
    1UNL    C16   20   0.043  -0.023  -0.085
    1UNL    C17   21   0.140  -0.103  -0.186
    1UNL    C18   22   0.105  -0.248  -0.152
    1UNL     N2   23  -0.025  -0.258  -0.081
    1UNL    C19   24  -0.027  -0.327   0.053
    1UNL    C20   25  -0.121  -0.269   0.153
    1UNL     O4   26  -0.081  -0.138   0.195
    1UNL    C21   27  -0.210  -0.145   0.130
    1UNL    C22   28  -0.076  -0.121  -0.092
    1UNL     H1   29  -0.422  -0.319  -0.133
    1UNL     H2   30  -0.263  -0.334  -0.162
    1UNL     H3   31  -0.327  -0.339   0.000
    1UNL     H4   32  -0.336  -0.099  -0.194
    1UNL     H5   33  -0.433  -0.119  -0.043
    1UNL     H6   34  -0.312   0.087  -0.055
    1UNL     H7   35  -0.225   0.111   0.092
    1UNL     H8   36  -0.288   0.499  -0.200
    1UNL     H9   37  -0.409   0.502  -0.064
    1UNL    H10   38  -0.240   0.545  -0.033
    1UNL    H11   39   0.120   0.289  -0.106
    1UNL    H12   40   0.342   0.264   0.075
    1UNL    H13   41   0.665   0.217   0.196
    1UNL    H14   42   0.535   0.269   0.096
    1UNL    H15   43   0.640   0.129   0.051
    1UNL    H16   44   0.367  -0.125   0.246
    1UNL    H17   45   0.161  -0.185   0.148
    1UNL    H18   46   0.239  -0.070  -0.155
    1UNL    H19   47   0.124  -0.068  -0.291
    1UNL    H20   48   0.183  -0.276  -0.091
    1UNL    H21   49   0.105  -0.305  -0.249
    1UNL    H22   50   0.075  -0.351   0.085
    1UNL    H23   51  -0.070  -0.429   0.020
    1UNL    H24   52  -0.134  -0.332   0.240
    1UNL    H25   53  -0.289  -0.120   0.198
    1UNL    H26   54  -0.101  -0.108  -0.193
   0.00000   0.00000   0.00000   0.00000   0.00000   0.00000   0.00000   0.00000   0.00000
Generated with MDTraj, t= 50.0
 54
    1UNL     C1    1  -0.327  -0.285  -0.110
    1UNL     C2    2  -0.334  -0.135  -0.071
    1UNL     C3    3  -0.208  -0.070  -0.004
    1UNL     C4    4  -0.216   0.081  -0.004
    1UNL     C5    5  -0.123   0.156  -0.101
    1UNL     C6    6  -0.171   0.294  -0.131
    1UNL     O1    7  -0.099   0.366  -0.201
    1UNL     O2    8  -0.288   0.333  -0.067
    1UNL     C7    9  -0.286   0.469  -0.045
    1UNL     C8   10   0.012   0.110  -0.123
    1UNL     N1   11   0.125   0.193  -0.099
    1UNL     C9   12   0.205   0.129  -0.001
    1UNL    C10   13   0.318   0.176   0.069
    1UNL    C11   14   0.380   0.083   0.160
    1UNL     O3   15   0.507   0.095   0.227
    1UNL    C12   16   0.603   0.166   0.152
    1UNL    C13   17   0.315  -0.033   0.196
    1UNL    C14   18   0.199  -0.073   0.129
    1UNL    C15   19   0.144   0.007   0.032
    1UNL    C16   20   0.050  -0.028  -0.085
    1UNL    C17   21   0.137  -0.110  -0.184
    1UNL    C18   22   0.088  -0.261  -0.168
    1UNL     N2   23  -0.042  -0.249  -0.093
    1UNL    C19   24  -0.033  -0.331   0.035
    1UNL    C20   25  -0.114  -0.264   0.155
    1UNL     O4   26  -0.061  -0.140   0.193
    1UNL    C21   27  -0.189  -0.131   0.144
    1UNL    C22   28  -0.086  -0.114  -0.093
    1UNL     H1   29  -0.420  -0.311  -0.143
    1UNL     H2   30  -0.265  -0.309  -0.194
    1UNL     H3   31  -0.305  -0.347  -0.029
    1UNL     H4   32  -0.356  -0.087  -0.178
    1UNL     H5   33  -0.421  -0.123  -0.007
    1UNL     H6   34  -0.312   0.115  -0.030
    1UNL     H7   35  -0.191   0.123   0.092
    1UNL     H8   36  -0.293   0.512  -0.143
    1UNL     H9   37  -0.369   0.492   0.023
    1UNL    H10   38  -0.188   0.496   0.006
    1UNL    H11   39   0.112   0.292  -0.100
    1UNL    H12   40   0.368   0.268   0.044
    1UNL    H13   41   0.689   0.101   0.124
    1UNL    H14   42   0.639   0.246   0.207
    1UNL    H15   43   0.558   0.193   0.058
    1UNL    H16   44   0.363  -0.111   0.258
    1UNL    H17   45   0.150  -0.169   0.144
    1UNL    H18   46   0.243  -0.095  -0.162
    1UNL    H19   47   0.119  -0.085  -0.291
    1UNL    H20   48   0.171  -0.310  -0.129
    1UNL    H21   49   0.068  -0.297  -0.270
    1UNL    H22   50   0.073  -0.359   0.050
    1UNL    H23   51  -0.078  -0.432   0.003
    1UNL    H24   52  -0.126  -0.331   0.243
    1UNL    H25   53  -0.267  -0.112   0.214
    1UNL    H26   54  -0.125  -0.099  -0.187
   0.00000   0.00000   0.00000   0.00000   0.00000   0.00000   0.00000   0.00000   0.00000
Generated with MDTraj, t= 51.0
 54
    1UNL     C1    1  -0.349  -0.264  -0.088
    1UNL     C2    2  -0.326  -0.109  -0.063
    1UNL     C3    3  -0.194  -0.071  -0.003
    1UNL     C4    4  -0.199   0.080   0.014
    1UNL     C5    5  -0.123   0.156  -0.089
    1UNL     C6    6  -0.153   0.293  -0.112
    1UNL     O1    7  -0.089   0.353  -0.199
    1UNL     O2    8  -0.246   0.360  -0.029
    1UNL     C7    9  -0.287   0.476  -0.090
    1UNL     C8   10  -0.001   0.104  -0.119
    1UNL     N1   11   0.114   0.185  -0.107
    1UNL     C9   12   0.198   0.121  -0.005
    1UNL    C10   13   0.298   0.170   0.075
    1UNL    C11   14   0.358   0.096   0.170
    1UNL     O3   15   0.463   0.149   0.242
    1UNL    C12   16   0.583   0.171   0.166
    1UNL    C13   17   0.311  -0.035   0.195
    1UNL    C14   18   0.214  -0.093   0.116
    1UNL    C15   19   0.160  -0.017   0.011
    1UNL    C16   20   0.052  -0.043  -0.101
    1UNL    C17   21   0.124  -0.113  -0.212
    1UNL    C18   22   0.074  -0.264  -0.186
    1UNL     N2   23  -0.047  -0.265  -0.101
    1UNL    C19   24  -0.027  -0.337   0.026
    1UNL    C20   25  -0.097  -0.276   0.151
    1UNL     O4   26  -0.043  -0.149   0.197
    1UNL    C21   27  -0.177  -0.144   0.141
    1UNL    C22   28  -0.081  -0.121  -0.100
    1UNL     H1   29  -0.439  -0.282  -0.147
    1UNL     H2   30  -0.281  -0.316  -0.143
    1UNL     H3   31  -0.364  -0.317   0.000
    1UNL     H4   32  -0.331  -0.057  -0.168
    1UNL     H5   33  -0.406  -0.068   0.002
    1UNL     H6   34  -0.301   0.119   0.023
    1UNL     H7   35  -0.148   0.094   0.107
    1UNL     H8   36  -0.282   0.457  -0.196
    1UNL     H9   37  -0.390   0.491  -0.055
    1UNL    H10   38  -0.215   0.559  -0.055
    1UNL    H11   39   0.095   0.283  -0.098
    1UNL    H12   40   0.331   0.271   0.054
    1UNL    H13   41   0.575   0.148   0.056
    1UNL    H14   42   0.659   0.104   0.199
    1UNL    H15   43   0.613   0.277   0.163
    1UNL    H16   44   0.347  -0.081   0.281
    1UNL    H17   45   0.184  -0.194   0.132
    1UNL    H18   46   0.234  -0.111  -0.223
    1UNL    H19   47   0.078  -0.081  -0.308
    1UNL    H20   48   0.152  -0.313  -0.137
    1UNL    H21   49   0.053  -0.301  -0.288
    1UNL    H22   50   0.082  -0.331   0.046
    1UNL    H23   51  -0.039  -0.450   0.005
    1UNL    H24   52  -0.112  -0.344   0.241
    1UNL    H25   53  -0.251  -0.135   0.218
    1UNL    H26   54  -0.129  -0.102  -0.191
   0.00000   0.00000   0.00000   0.00000   0.00000   0.00000   0.00000   0.00000   0.00000
Generated with MDTraj, t= 52.0
 54
    1UNL     C1    1  -0.354  -0.253  -0.047
    1UNL     C2    2  -0.331  -0.107  -0.029
    1UNL     C3    3  -0.191  -0.076   0.022
    1UNL     C4    4  -0.171   0.076   0.021
    1UNL     C5    5  -0.115   0.147  -0.100
    1UNL     C6    6  -0.139   0.297  -0.110
    1UNL     O1    7  -0.051   0.365  -0.165
    1UNL     O2    8  -0.263   0.341  -0.067
    1UNL     C7    9  -0.278   0.484  -0.086
    1UNL     C8   10   0.008   0.103  -0.146
    1UNL     N1   11   0.127   0.179  -0.126
    1UNL     C9   12   0.206   0.113  -0.029
    1UNL    C10   13   0.308   0.172   0.048
    1UNL    C11   14   0.347   0.102   0.162
    1UNL     O3   15   0.443   0.153   0.262
    1UNL    C12   16   0.561   0.205   0.212
    1UNL    C13   17   0.292  -0.029   0.184
    1UNL    C14   18   0.197  -0.084   0.102
    1UNL    C15   19   0.145  -0.010  -0.006
    1UNL    C16   20   0.047  -0.040  -0.114
    1UNL    C17   21   0.121  -0.118  -0.218
    1UNL    C18   22   0.064  -0.264  -0.208
    1UNL     N2   23  -0.055  -0.265  -0.110
    1UNL    C19   24  -0.030  -0.341   0.012
    1UNL    C20   25  -0.101  -0.289   0.141
    1UNL     O4   26  -0.031  -0.182   0.205
    1UNL    C21   27  -0.160  -0.150   0.159
    1UNL    C22   28  -0.088  -0.120  -0.093
    1UNL     H1   29  -0.461  -0.279  -0.058
    1UNL     H2   30  -0.312  -0.286  -0.134
    1UNL     H3   31  -0.316  -0.306   0.033
    1UNL     H4   32  -0.342  -0.051  -0.128
    1UNL     H5   33  -0.413  -0.066   0.043
    1UNL     H6   34  -0.278   0.111   0.026
    1UNL     H7   35  -0.118   0.102   0.106
    1UNL     H8   36  -0.319   0.499  -0.183
    1UNL     H9   37  -0.336   0.534  -0.008
    1UNL    H10   38  -0.171   0.530  -0.088
    1UNL    H11   39   0.112   0.278  -0.115
    1UNL    H12   40   0.358   0.264   0.032
    1UNL    H13   41   0.547   0.318   0.207
    1UNL    H14   42   0.577   0.178   0.106
    1UNL    H15   43   0.650   0.202   0.280
    1UNL    H16   44   0.333  -0.079   0.274
    1UNL    H17   45   0.166  -0.181   0.133
    1UNL    H18   46   0.231  -0.131  -0.203
    1UNL    H19   47   0.115  -0.077  -0.319
    1UNL    H20   48   0.131  -0.331  -0.161
    1UNL    H21   49   0.021  -0.293  -0.306
    1UNL    H22   50   0.081  -0.355   0.027
    1UNL    H23   51  -0.066  -0.447  -0.012
    1UNL    H24   52  -0.125  -0.376   0.208
    1UNL    H25   53  -0.237  -0.137   0.235
    1UNL    H26   54  -0.156  -0.113  -0.179
   0.00000   0.00000   0.00000   0.00000   0.00000   0.00000   0.00000   0.00000   0.00000
Generated with MDTraj, t= 53.0
 54
    1UNL     C1    1  -0.357  -0.250  -0.037
    1UNL     C2    2  -0.328  -0.108  -0.032
    1UNL     C3    3  -0.186  -0.071   0.014
    1UNL     C4    4  -0.170   0.088   0.023
    1UNL     C5    5  -0.097   0.157  -0.088
    1UNL     C6    6  -0.124   0.298  -0.107
    1UNL     O1    7  -0.041   0.378  -0.152
    1UNL     O2    8  -0.258   0.325  -0.071
    1UNL     C7    9  -0.286   0.457  -0.076
    1UNL     C8   10   0.020   0.104  -0.144
    1UNL     N1   11   0.137   0.168  -0.140
    1UNL     C9   12   0.221   0.108  -0.036
    1UNL    C10   13   0.309   0.162   0.054
    1UNL    C11   14   0.353   0.091   0.167
    1UNL     O3   15   0.441   0.146   0.255
    1UNL    C12   16   0.510   0.259   0.218
    1UNL    C13   17   0.300  -0.039   0.193
    1UNL    C14   18   0.212  -0.097   0.100
    1UNL    C15   19   0.169  -0.019  -0.009
    1UNL    C16   20   0.058  -0.047  -0.113
    1UNL    C17   21   0.104  -0.133  -0.231
    1UNL    C18   22   0.035  -0.269  -0.219
    1UNL     N2   23  -0.066  -0.260  -0.106
    1UNL    C19   24  -0.047  -0.341   0.015
    1UNL    C20   25  -0.092  -0.286   0.150
    1UNL     O4   26  -0.033  -0.165   0.188
    1UNL    C21   27  -0.161  -0.143   0.152
    1UNL    C22   28  -0.084  -0.111  -0.094
    1UNL     H1   29  -0.459  -0.268  -0.065
    1UNL     H2   30  -0.297  -0.296  -0.116
    1UNL     H3   31  -0.340  -0.288   0.060
    1UNL     H4   32  -0.357  -0.060  -0.129
    1UNL     H5   33  -0.400  -0.053   0.047
    1UNL     H6   34  -0.269   0.141   0.034
    1UNL     H7   35  -0.113   0.102   0.109
    1UNL     H8   36  -0.233   0.503  -0.155
    1UNL     H9   37  -0.391   0.462  -0.098
    1UNL    H10   38  -0.264   0.507   0.025
    1UNL    H11   39   0.132   0.269  -0.152
    1UNL    H12   40   0.336   0.266   0.039
    1UNL    H13   41   0.561   0.305   0.308
    1UNL    H14   42   0.439   0.337   0.185
    1UNL    H15   43   0.594   0.246   0.145
    1UNL    H16   44   0.325  -0.098   0.279
    1UNL    H17   45   0.163  -0.195   0.111
    1UNL    H18   46   0.215  -0.146  -0.232
    1UNL    H19   47   0.088  -0.080  -0.325
    1UNL    H20   48   0.102  -0.338  -0.172
    1UNL    H21   49  -0.030  -0.299  -0.305
    1UNL    H22   50   0.055  -0.391   0.018
    1UNL    H23   51  -0.123  -0.423  -0.006
    1UNL    H24   52  -0.117  -0.357   0.233
    1UNL    H25   53  -0.234  -0.127   0.235
    1UNL    H26   54  -0.144  -0.091  -0.188
   0.00000   0.00000   0.00000   0.00000   0.00000   0.00000   0.00000   0.00000   0.00000
Generated with MDTraj, t= 54.0
 54
    1UNL     C1    1  -0.385  -0.243  -0.066
    1UNL     C2    2  -0.340  -0.095  -0.030
    1UNL     C3    3  -0.193  -0.071   0.018
    1UNL     C4    4  -0.182   0.088   0.022
    1UNL     C5    5  -0.104   0.157  -0.088
    1UNL     C6    6  -0.137   0.304  -0.105
    1UNL     O1    7  -0.052   0.365  -0.168
    1UNL     O2    8  -0.253   0.353  -0.052
    1UNL     C7    9  -0.278   0.481  -0.091
    1UNL     C8   10   0.008   0.095  -0.140
    1UNL     N1   11   0.133   0.164  -0.126
    1UNL     C9   12   0.211   0.107  -0.027
    1UNL    C10   13   0.311   0.163   0.044
    1UNL    C11   14   0.373   0.087   0.148
    1UNL     O3   15   0.474   0.131   0.231
    1UNL    C12   16   0.468   0.269   0.265
    1UNL    C13   17   0.333  -0.045   0.160
    1UNL    C14   18   0.232  -0.100   0.086
    1UNL    C15   19   0.159  -0.026  -0.004
    1UNL    C16   20   0.048  -0.047  -0.109
    1UNL    C17   21   0.109  -0.137  -0.225
    1UNL    C18   22   0.056  -0.278  -0.198
    1UNL     N2   23  -0.059  -0.274  -0.096
    1UNL    C19   24  -0.024  -0.345   0.028
    1UNL    C20   25  -0.087  -0.285   0.150
    1UNL     O4   26  -0.033  -0.162   0.184
    1UNL    C21   27  -0.168  -0.145   0.149
    1UNL    C22   28  -0.093  -0.123  -0.088
    1UNL     H1   29  -0.475  -0.250  -0.114
    1UNL     H2   30  -0.314  -0.287  -0.140
    1UNL     H3   31  -0.386  -0.305   0.021
    1UNL     H4   32  -0.360  -0.017  -0.108
    1UNL     H5   33  -0.411  -0.050   0.054
    1UNL     H6   34  -0.284   0.133   0.024
    1UNL     H7   35  -0.128   0.120   0.107
    1UNL     H8   36  -0.199   0.550  -0.073
    1UNL     H9   37  -0.294   0.477  -0.195
    1UNL    H10   38  -0.372   0.513  -0.033
    1UNL    H11   39   0.129   0.269  -0.132
    1UNL    H12   40   0.330   0.268   0.030
    1UNL    H13   41   0.566   0.322   0.275
    1UNL    H14   42   0.421   0.287   0.363
    1UNL    H15   43   0.424   0.330   0.179
    1UNL    H16   44   0.382  -0.101   0.236
    1UNL    H17   45   0.214  -0.204   0.096
    1UNL    H18   46   0.222  -0.134  -0.218
    1UNL    H19   47   0.105  -0.110  -0.331
    1UNL    H20   48   0.137  -0.328  -0.148
    1UNL    H21   49   0.020  -0.339  -0.284
    1UNL    H22   50   0.089  -0.339   0.040
    1UNL    H23   51  -0.053  -0.454   0.020
    1UNL    H24   52  -0.104  -0.356   0.232
    1UNL    H25   53  -0.235  -0.108   0.231
    1UNL    H26   54  -0.144  -0.108  -0.192
   0.00000   0.00000   0.00000   0.00000   0.00000   0.00000   0.00000   0.00000   0.00000
Generated with MDTraj, t= 55.0
 54
    1UNL     C1    1  -0.328  -0.265  -0.070
    1UNL     C2    2  -0.335  -0.113  -0.033
    1UNL     C3    3  -0.190  -0.074   0.019
    1UNL     C4    4  -0.190   0.082   0.026
    1UNL     C5    5  -0.119   0.152  -0.093
    1UNL     C6    6  -0.148   0.287  -0.121
    1UNL     O1    7  -0.082   0.351  -0.202
    1UNL     O2    8  -0.259   0.353  -0.057
    1UNL     C7    9  -0.259   0.495  -0.071
    1UNL     C8   10   0.007   0.103  -0.131
    1UNL     N1   11   0.122   0.180  -0.136
    1UNL     C9   12   0.209   0.115  -0.040
    1UNL    C10   13   0.325   0.159   0.022
    1UNL    C11   14   0.383   0.081   0.124
    1UNL     O3   15   0.496   0.124   0.194
    1UNL    C12   16   0.455   0.200   0.313
    1UNL    C13   17   0.327  -0.038   0.157
    1UNL    C14   18   0.217  -0.085   0.096
    1UNL    C15   19   0.155  -0.006   0.001
    1UNL    C16   20   0.047  -0.037  -0.105
    1UNL    C17   21   0.121  -0.126  -0.217
    1UNL    C18   22   0.061  -0.268  -0.185
    1UNL     N2   23  -0.053  -0.259  -0.095
    1UNL    C19   24  -0.041  -0.335   0.033
    1UNL    C20   25  -0.109  -0.270   0.158
    1UNL     O4   26  -0.039  -0.150   0.200
    1UNL    C21   27  -0.168  -0.133   0.156
    1UNL    C22   28  -0.084  -0.119  -0.079
    1UNL     H1   29  -0.412  -0.307  -0.111
    1UNL     H2   30  -0.246  -0.282  -0.140
    1UNL     H3   31  -0.301  -0.316   0.024
    1UNL     H4   32  -0.363  -0.047  -0.121
    1UNL     H5   33  -0.415  -0.090   0.041
    1UNL     H6   34  -0.292   0.123   0.034
    1UNL     H7   35  -0.138   0.108   0.120
    1UNL     H8   36  -0.302   0.545   0.014
    1UNL     H9   37  -0.159   0.525  -0.076
    1UNL    H10   38  -0.322   0.530  -0.158
    1UNL    H11   39   0.102   0.282  -0.128
    1UNL    H12   40   0.369   0.255   0.001
    1UNL    H13   41   0.537   0.213   0.383
    1UNL    H14   42   0.381   0.156   0.378
    1UNL    H15   43   0.439   0.306   0.275
    1UNL    H16   44   0.383  -0.090   0.237
    1UNL    H17   45   0.177  -0.180   0.121
    1UNL    H18   46   0.234  -0.115  -0.220
    1UNL    H19   47   0.105  -0.095  -0.320
    1UNL    H20   48   0.142  -0.329  -0.147
    1UNL    H21   49   0.029  -0.323  -0.276
    1UNL    H22   50   0.070  -0.332   0.059
    1UNL    H23   51  -0.076  -0.442   0.021
    1UNL    H24   52  -0.140  -0.334   0.240
    1UNL    H25   53  -0.240  -0.100   0.235
    1UNL    H26   54  -0.134  -0.092  -0.183
   0.00000   0.00000   0.00000   0.00000   0.00000   0.00000   0.00000   0.00000   0.00000
Generated with MDTraj, t= 56.0
 54
    1UNL     C1    1  -0.355  -0.273  -0.038
    1UNL     C2    2  -0.333  -0.131  -0.036
    1UNL     C3    3  -0.198  -0.074   0.002
    1UNL     C4    4  -0.208   0.088  -0.005
    1UNL     C5    5  -0.119   0.154  -0.109
    1UNL     C6    6  -0.147   0.301  -0.121
    1UNL     O1    7  -0.078   0.359  -0.204
    1UNL     O2    8  -0.241   0.346  -0.038
    1UNL     C7    9  -0.278   0.475  -0.069
    1UNL     C8   10   0.003   0.102  -0.144
    1UNL     N1   11   0.121   0.178  -0.132
    1UNL     C9   12   0.209   0.115  -0.040
    1UNL    C10   13   0.314   0.171   0.031
    1UNL    C11   14   0.378   0.097   0.131
    1UNL     O3   15   0.486   0.154   0.197
    1UNL    C12   16   0.502   0.124   0.333
    1UNL    C13   17   0.325  -0.030   0.162
    1UNL    C14   18   0.216  -0.080   0.092
    1UNL    C15   19   0.157  -0.009  -0.010
    1UNL    C16   20   0.042  -0.037  -0.106
    1UNL    C17   21   0.116  -0.125  -0.215
    1UNL    C18   22   0.076  -0.277  -0.183
    1UNL     N2   23  -0.044  -0.266  -0.092
    1UNL    C19   24  -0.028  -0.330   0.045
    1UNL    C20   25  -0.091  -0.249   0.166
    1UNL     O4   26  -0.040  -0.117   0.188
    1UNL    C21   27  -0.176  -0.121   0.146
    1UNL    C22   28  -0.085  -0.129  -0.095
    1UNL     H1   29  -0.462  -0.304  -0.057
    1UNL     H2   30  -0.296  -0.317  -0.113
    1UNL     H3   31  -0.325  -0.316   0.055
    1UNL     H4   32  -0.365  -0.091  -0.140
    1UNL     H5   33  -0.400  -0.091   0.033
    1UNL     H6   34  -0.314   0.110  -0.010
    1UNL     H7   35  -0.170   0.125   0.097
    1UNL     H8   36  -0.379   0.482  -0.112
    1UNL     H9   37  -0.270   0.527   0.022
    1UNL    H10   38  -0.214   0.524  -0.150
    1UNL    H11   39   0.117   0.282  -0.121
    1UNL    H12   40   0.340   0.270  -0.001
    1UNL    H13   41   0.603   0.100   0.349
    1UNL    H14   42   0.442   0.047   0.371
    1UNL    H15   43   0.484   0.219   0.389
    1UNL    H16   44   0.363  -0.081   0.244
    1UNL    H17   45   0.157  -0.169   0.116
    1UNL    H18   46   0.224  -0.099  -0.238
    1UNL    H19   47   0.076  -0.100  -0.313
    1UNL    H20   48   0.162  -0.332  -0.146
    1UNL    H21   49   0.059  -0.319  -0.282
    1UNL    H22   50   0.081  -0.346   0.073
    1UNL    H23   51  -0.078  -0.432   0.040
    1UNL    H24   52  -0.124  -0.303   0.252
    1UNL    H25   53  -0.257  -0.097   0.217
    1UNL    H26   54  -0.129  -0.116  -0.202
   0.00000   0.00000   0.00000   0.00000   0.00000   0.00000   0.00000   0.00000   0.00000
Generated with MDTraj, t= 57.0
 54
    1UNL     C1    1  -0.351  -0.289  -0.018
    1UNL     C2    2  -0.335  -0.139  -0.044
    1UNL     C3    3  -0.198  -0.076  -0.001
    1UNL     C4    4  -0.219   0.082  -0.020
    1UNL     C5    5  -0.119   0.153  -0.115
    1UNL     C6    6  -0.143   0.305  -0.127
    1UNL     O1    7  -0.061   0.380  -0.183
    1UNL     O2    8  -0.265   0.349  -0.075
    1UNL     C7    9  -0.271   0.489  -0.077
    1UNL     C8   10   0.005   0.103  -0.154
    1UNL     N1   11   0.113   0.186  -0.127
    1UNL     C9   12   0.198   0.126  -0.033
    1UNL    C10   13   0.291   0.188   0.051
    1UNL    C11   14   0.354   0.106   0.146
    1UNL     O3   15   0.456   0.162   0.229
    1UNL    C12   16   0.538   0.075   0.297
    1UNL    C13   17   0.324  -0.033   0.156
    1UNL    C14   18   0.223  -0.080   0.081
    1UNL    C15   19   0.156  -0.006  -0.013
    1UNL    C16   20   0.045  -0.043  -0.115
    1UNL    C17   21   0.114  -0.134  -0.220
    1UNL    C18   22   0.068  -0.277  -0.189
    1UNL     N2   23  -0.042  -0.266  -0.080
    1UNL    C19   24  -0.024  -0.328   0.059
    1UNL    C20   25  -0.079  -0.242   0.179
    1UNL     O4   26  -0.020  -0.119   0.186
    1UNL    C21   27  -0.163  -0.119   0.154
    1UNL    C22   28  -0.083  -0.130  -0.090
    1UNL     H1   29  -0.447  -0.343  -0.055
    1UNL     H2   30  -0.272  -0.340  -0.063
    1UNL     H3   31  -0.341  -0.319   0.084
    1UNL     H4   32  -0.342  -0.124  -0.158
    1UNL     H5   33  -0.410  -0.088   0.003
    1UNL     H6   34  -0.320   0.104  -0.047
    1UNL     H7   35  -0.200   0.130   0.086
    1UNL     H8   36  -0.223   0.524  -0.173
    1UNL     H9   37  -0.372   0.520  -0.070
    1UNL    H10   38  -0.210   0.539   0.004
    1UNL    H11   39   0.104   0.287  -0.109
    1UNL    H12   40   0.329   0.286   0.025
    1UNL    H13   41   0.547  -0.019   0.253
    1UNL    H14   42   0.515   0.083   0.400
    1UNL    H15   43   0.638   0.121   0.282
    1UNL    H16   44   0.368  -0.092   0.240
    1UNL    H17   45   0.189  -0.179   0.101
    1UNL    H18   46   0.224  -0.120  -0.207
    1UNL    H19   47   0.095  -0.092  -0.319
    1UNL    H20   48   0.158  -0.338  -0.164
    1UNL    H21   49   0.027  -0.313  -0.283
    1UNL    H22   50   0.084  -0.345   0.080
    1UNL    H23   51  -0.086  -0.424   0.069
    1UNL    H24   52  -0.094  -0.292   0.273
    1UNL    H25   53  -0.227  -0.077   0.231
    1UNL    H26   54  -0.133  -0.123  -0.192
   0.00000   0.00000   0.00000   0.00000   0.00000   0.00000   0.00000   0.00000   0.00000
Generated with MDTraj, t= 58.0
 54
    1UNL     C1    1  -0.330  -0.301  -0.023
    1UNL     C2    2  -0.330  -0.140  -0.022
    1UNL     C3    3  -0.193  -0.068   0.003
    1UNL     C4    4  -0.217   0.088  -0.017
    1UNL     C5    5  -0.129   0.159  -0.116
    1UNL     C6    6  -0.145   0.303  -0.136
    1UNL     O1    7  -0.056   0.378  -0.175
    1UNL     O2    8  -0.271   0.340  -0.104
    1UNL     C7    9  -0.292   0.479  -0.101
    1UNL     C8   10  -0.003   0.112  -0.143
    1UNL     N1   11   0.119   0.186  -0.123
    1UNL     C9   12   0.197   0.118  -0.017
    1UNL    C10   13   0.299   0.173   0.061
    1UNL    C11   14   0.353   0.095   0.163
    1UNL     O3   15   0.452   0.144   0.250
    1UNL    C12   16   0.581   0.081   0.248
    1UNL    C13   17   0.313  -0.040   0.170
    1UNL    C14   18   0.205  -0.096   0.092
    1UNL    C15   19   0.144  -0.010   0.004
    1UNL    C16   20   0.038  -0.033  -0.107
    1UNL    C17   21   0.114  -0.115  -0.221
    1UNL    C18   22   0.077  -0.259  -0.182
    1UNL     N2   23  -0.043  -0.253  -0.085
    1UNL    C19   24  -0.037  -0.328   0.047
    1UNL    C20   25  -0.083  -0.244   0.170
    1UNL     O4   26  -0.018  -0.114   0.185
    1UNL    C21   27  -0.155  -0.111   0.146
    1UNL    C22   28  -0.087  -0.116  -0.090
    1UNL     H1   29  -0.424  -0.349  -0.058
    1UNL     H2   30  -0.253  -0.335  -0.094
    1UNL     H3   31  -0.308  -0.346   0.072
    1UNL     H4   32  -0.365  -0.105  -0.122
    1UNL     H5   33  -0.395  -0.118   0.056
    1UNL     H6   34  -0.315   0.111  -0.057
    1UNL     H7   35  -0.202   0.148   0.082
    1UNL     H8   36  -0.199   0.534  -0.076
    1UNL     H9   37  -0.314   0.502  -0.203
    1UNL    H10   38  -0.376   0.508  -0.034
    1UNL    H11   39   0.117   0.285  -0.108
    1UNL    H12   40   0.347   0.263   0.024
    1UNL    H13   41   0.570  -0.022   0.244
    1UNL    H14   42   0.636   0.126   0.328
    1UNL    H15   43   0.637   0.103   0.155
    1UNL    H16   44   0.362  -0.094   0.247
    1UNL    H17   45   0.174  -0.194   0.112
    1UNL    H18   46   0.223  -0.105  -0.209
    1UNL    H19   47   0.080  -0.077  -0.318
    1UNL    H20   48   0.157  -0.306  -0.121
    1UNL    H21   49   0.043  -0.324  -0.262
    1UNL    H22   50   0.062  -0.370   0.073
    1UNL    H23   51  -0.112  -0.414   0.042
    1UNL    H24   52  -0.110  -0.297   0.261
    1UNL    H25   53  -0.219  -0.074   0.223
    1UNL    H26   54  -0.135  -0.105  -0.189
   0.00000   0.00000   0.00000   0.00000   0.00000   0.00000   0.00000   0.00000   0.00000
Generated with MDTraj, t= 59.0
 54
    1UNL     C1    1  -0.352  -0.264  -0.054
    1UNL     C2    2  -0.340  -0.118  -0.063
    1UNL     C3    3  -0.205  -0.072   0.003
    1UNL     C4    4  -0.201   0.083   0.012
    1UNL     C5    5  -0.119   0.157  -0.094
    1UNL     C6    6  -0.151   0.296  -0.127
    1UNL     O1    7  -0.066   0.366  -0.182
    1UNL     O2    8  -0.278   0.339  -0.096
    1UNL     C7    9  -0.327   0.461  -0.147
    1UNL     C8   10   0.003   0.114  -0.133
    1UNL     N1   11   0.117   0.189  -0.097
    1UNL     C9   12   0.192   0.124   0.009
    1UNL    C10   13   0.298   0.177   0.082
    1UNL    C11   14   0.371   0.096   0.165
    1UNL     O3   15   0.484   0.150   0.241
    1UNL    C12   16   0.607   0.077   0.198
    1UNL    C13   17   0.331  -0.038   0.179
    1UNL    C14   18   0.233  -0.092   0.097
    1UNL    C15   19   0.155  -0.013   0.017
    1UNL    C16   20   0.051  -0.031  -0.093
    1UNL    C17   21   0.117  -0.113  -0.214
    1UNL    C18   22   0.078  -0.266  -0.181
    1UNL     N2   23  -0.042  -0.258  -0.090
    1UNL    C19   24  -0.028  -0.321   0.047
    1UNL    C20   25  -0.096  -0.251   0.170
    1UNL     O4   26  -0.051  -0.119   0.191
    1UNL    C21   27  -0.184  -0.125   0.152
    1UNL    C22   28  -0.084  -0.114  -0.090
    1UNL     H1   29  -0.442  -0.294  -0.101
    1UNL     H2   30  -0.268  -0.317  -0.112
    1UNL     H3   31  -0.356  -0.308   0.049
    1UNL     H4   32  -0.344  -0.095  -0.167
    1UNL     H5   33  -0.414  -0.072  -0.004
    1UNL     H6   34  -0.302   0.123   0.006
    1UNL     H7   35  -0.153   0.121   0.109
    1UNL     H8   36  -0.371   0.527  -0.071
    1UNL     H9   37  -0.239   0.512  -0.182
    1UNL    H10   38  -0.398   0.438  -0.227
    1UNL    H11   39   0.115   0.290  -0.096
    1UNL    H12   40   0.332   0.278   0.065
    1UNL    H13   41   0.612  -0.015   0.250
    1UNL    H14   42   0.694   0.142   0.198
    1UNL    H15   43   0.597   0.034   0.094
    1UNL    H16   44   0.362  -0.103   0.261
    1UNL    H17   45   0.203  -0.193   0.123
    1UNL    H18   46   0.226  -0.107  -0.202
    1UNL    H19   47   0.086  -0.082  -0.315
    1UNL    H20   48   0.141  -0.328  -0.114
    1UNL    H21   49   0.048  -0.333  -0.260
    1UNL    H22   50   0.079  -0.326   0.075
    1UNL    H23   51  -0.067  -0.430   0.041
    1UNL    H24   52  -0.131  -0.314   0.252
    1UNL    H25   53  -0.254  -0.089   0.223
    1UNL    H26   54  -0.122  -0.105  -0.188
   0.00000   0.00000   0.00000   0.00000   0.00000   0.00000   0.00000   0.00000   0.00000
Generated with MDTraj, t= 60.0
 54
    1UNL     C1    1  -0.344  -0.257  -0.093
    1UNL     C2    2  -0.333  -0.110  -0.055
    1UNL     C3    3  -0.200  -0.064   0.013
    1UNL     C4    4  -0.204   0.092   0.024
    1UNL     C5    5  -0.124   0.162  -0.090
    1UNL     C6    6  -0.172   0.289  -0.139
    1UNL     O1    7  -0.086   0.363  -0.190
    1UNL     O2    8  -0.308   0.329  -0.127
    1UNL     C7    9  -0.332   0.460  -0.160
    1UNL     C8   10   0.009   0.114  -0.117
    1UNL     N1   11   0.119   0.199  -0.089
    1UNL     C9   12   0.203   0.139   0.011
    1UNL    C10   13   0.323   0.186   0.066
    1UNL    C11   14   0.394   0.105   0.151
    1UNL     O3   15   0.519   0.143   0.202
    1UNL    C12   16   0.626   0.046   0.203
    1UNL    C13   17   0.342  -0.026   0.177
    1UNL    C14   18   0.229  -0.077   0.114
    1UNL    C15   19   0.148   0.012   0.045
    1UNL    C16   20   0.049  -0.028  -0.068
    1UNL    C17   21   0.134  -0.115  -0.172
    1UNL    C18   22   0.078  -0.254  -0.173
    1UNL     N2   23  -0.049  -0.256  -0.092
    1UNL    C19   24  -0.041  -0.330   0.043
    1UNL    C20   25  -0.127  -0.275   0.152
    1UNL     O4   26  -0.066  -0.160   0.211
    1UNL    C21   27  -0.187  -0.129   0.151
    1UNL    C22   28  -0.081  -0.106  -0.077
    1UNL     H1   29  -0.445  -0.269  -0.123
    1UNL     H2   30  -0.281  -0.279  -0.185
    1UNL     H3   31  -0.322  -0.337  -0.013
    1UNL     H4   32  -0.347  -0.052  -0.137
    1UNL     H5   33  -0.410  -0.086   0.014
    1UNL     H6   34  -0.309   0.127   0.023
    1UNL     H7   35  -0.159   0.114   0.123
    1UNL     H8   36  -0.431   0.480  -0.200
    1UNL     H9   37  -0.326   0.511  -0.064
    1UNL    H10   38  -0.258   0.484  -0.235
    1UNL    H11   39   0.098   0.299  -0.095
    1UNL    H12   40   0.354   0.286   0.046
    1UNL    H13   41   0.597  -0.027   0.277
    1UNL    H14   42   0.718   0.105   0.225
    1UNL    H15   43   0.641  -0.009   0.105
    1UNL    H16   44   0.397  -0.085   0.250
    1UNL    H17   45   0.201  -0.182   0.123
    1UNL    H18   46   0.242  -0.133  -0.157
    1UNL    H19   47   0.106  -0.068  -0.268
    1UNL    H20   48   0.139  -0.338  -0.134
    1UNL    H21   49   0.056  -0.289  -0.274
    1UNL    H22   50   0.061  -0.322   0.081
    1UNL    H23   51  -0.058  -0.444   0.027
    1UNL    H24   52  -0.184  -0.347   0.214
    1UNL    H25   53  -0.259  -0.101   0.226
    1UNL    H26   54  -0.111  -0.088  -0.175
   0.00000   0.00000   0.00000   0.00000   0.00000   0.00000   0.00000   0.00000   0.00000
Generated with MDTraj, t= 61.0
 54
    1UNL     C1    1  -0.341  -0.265  -0.107
    1UNL     C2    2  -0.335  -0.112  -0.064
    1UNL     C3    3  -0.199  -0.066   0.009
    1UNL     C4    4  -0.209   0.090   0.025
    1UNL     C5    5  -0.123   0.166  -0.070
    1UNL     C6    6  -0.166   0.298  -0.119
    1UNL     O1    7  -0.083   0.369  -0.176
    1UNL     O2    8  -0.299   0.321  -0.102
    1UNL     C7    9  -0.338   0.430  -0.180
    1UNL     C8   10   0.002   0.121  -0.109
    1UNL     N1   11   0.122   0.202  -0.100
    1UNL     C9   12   0.203   0.139  -0.006
    1UNL    C10   13   0.329   0.179   0.045
    1UNL    C11   14   0.393   0.088   0.139
    1UNL     O3   15   0.527   0.124   0.166
    1UNL    C12   16   0.608   0.031   0.231
    1UNL    C13   17   0.327  -0.026   0.193
    1UNL    C14   18   0.208  -0.065   0.131
    1UNL    C15   19   0.145   0.017   0.036
    1UNL    C16   20   0.051  -0.015  -0.077
    1UNL    C17   21   0.129  -0.089  -0.191
    1UNL    C18   22   0.089  -0.241  -0.164
    1UNL     N2   23  -0.040  -0.253  -0.083
    1UNL    C19   24  -0.043  -0.327   0.052
    1UNL    C20   25  -0.116  -0.269   0.164
    1UNL     O4   26  -0.059  -0.144   0.206
    1UNL    C21   27  -0.186  -0.136   0.153
    1UNL    C22   28  -0.078  -0.107  -0.078
    1UNL     H1   29  -0.437  -0.282  -0.168
    1UNL     H2   30  -0.256  -0.284  -0.175
    1UNL     H3   31  -0.341  -0.341  -0.023
    1UNL     H4   32  -0.349  -0.051  -0.144
    1UNL     H5   33  -0.417  -0.082  -0.002
    1UNL     H6   34  -0.321   0.109   0.009
    1UNL     H7   35  -0.185   0.109   0.128
    1UNL     H8   36  -0.291   0.429  -0.278
    1UNL     H9   37  -0.449   0.433  -0.186
    1UNL    H10   38  -0.291   0.515  -0.131
    1UNL    H11   39   0.100   0.304  -0.097
    1UNL    H12   40   0.378   0.274   0.025
    1UNL    H13   41   0.587   0.053   0.337
    1UNL    H14   42   0.708   0.060   0.186
    1UNL    H15   43   0.581  -0.074   0.200
    1UNL    H16   44   0.370  -0.087   0.267
    1UNL    H17   45   0.158  -0.154   0.160
    1UNL    H18   46   0.235  -0.070  -0.185
    1UNL    H19   47   0.083  -0.063  -0.290
    1UNL    H20   48   0.173  -0.304  -0.127
    1UNL    H21   49   0.076  -0.293  -0.258
    1UNL    H22   50   0.063  -0.340   0.081
    1UNL    H23   51  -0.081  -0.434   0.033
    1UNL    H24   52  -0.157  -0.345   0.235
    1UNL    H25   53  -0.257  -0.108   0.232
    1UNL    H26   54  -0.115  -0.102  -0.177
   0.00000   0.00000   0.00000   0.00000   0.00000   0.00000   0.00000   0.00000   0.00000
Generated with MDTraj, t= 62.0
 54
    1UNL     C1    1  -0.342  -0.274  -0.064
    1UNL     C2    2  -0.335  -0.127  -0.059
    1UNL     C3    3  -0.207  -0.072   0.008
    1UNL     C4    4  -0.205   0.086   0.008
    1UNL     C5    5  -0.122   0.167  -0.092
    1UNL     C6    6  -0.164   0.302  -0.125
    1UNL     O1    7  -0.083   0.389  -0.160
    1UNL     O2    8  -0.300   0.320  -0.112
    1UNL     C7    9  -0.335   0.449  -0.150
    1UNL     C8   10   0.007   0.126  -0.127
    1UNL     N1   11   0.124   0.203  -0.104
    1UNL     C9   12   0.206   0.133  -0.015
    1UNL    C10   13   0.325   0.171   0.044
    1UNL    C11   14   0.394   0.082   0.132
    1UNL     O3   15   0.518   0.123   0.180
    1UNL    C12   16   0.578   0.030   0.275
    1UNL    C13   17   0.325  -0.036   0.164
    1UNL    C14   18   0.201  -0.071   0.115
    1UNL    C15   19   0.143   0.007   0.020
    1UNL    C16   20   0.042  -0.020  -0.095
    1UNL    C17   21   0.129  -0.104  -0.205
    1UNL    C18   22   0.075  -0.248  -0.177
    1UNL     N2   23  -0.031  -0.249  -0.076
    1UNL    C19   24  -0.014  -0.320   0.056
    1UNL    C20   25  -0.091  -0.253   0.175
    1UNL     O4   26  -0.048  -0.124   0.203
    1UNL    C21   27  -0.181  -0.129   0.154
    1UNL    C22   28  -0.081  -0.114  -0.081
    1UNL     H1   29  -0.454  -0.301  -0.099
    1UNL     H2   30  -0.272  -0.311  -0.140
    1UNL     H3   31  -0.324  -0.326   0.033
    1UNL     H4   32  -0.354  -0.084  -0.153
    1UNL     H5   33  -0.414  -0.086  -0.001
    1UNL     H6   34  -0.315   0.112  -0.013
    1UNL     H7   35  -0.183   0.109   0.109
    1UNL     H8   36  -0.311   0.513  -0.064
    1UNL     H9   37  -0.297   0.488  -0.247
    1UNL    H10   38  -0.445   0.445  -0.150
    1UNL    H11   39   0.102   0.306  -0.098
    1UNL    H12   40   0.355   0.273   0.032
    1UNL    H13   41   0.495  -0.007   0.337
    1UNL    H14   42   0.652   0.098   0.326
    1UNL    H15   43   0.638  -0.042   0.215
    1UNL    H16   44   0.368  -0.108   0.239
    1UNL    H17   45   0.145  -0.158   0.151
    1UNL    H18   46   0.229  -0.073  -0.177
    1UNL    H19   47   0.098  -0.069  -0.306
    1UNL    H20   48   0.165  -0.310  -0.149
    1UNL    H21   49   0.047  -0.306  -0.263
    1UNL    H22   50   0.096  -0.326   0.073
    1UNL    H23   51  -0.039  -0.430   0.032
    1UNL    H24   52  -0.139  -0.323   0.249
    1UNL    H25   53  -0.260  -0.112   0.230
    1UNL    H26   54  -0.123  -0.102  -0.182
   0.00000   0.00000   0.00000   0.00000   0.00000   0.00000   0.00000   0.00000   0.00000
Generated with MDTraj, t= 63.0
 54
    1UNL     C1    1  -0.336  -0.283  -0.017
    1UNL     C2    2  -0.331  -0.130  -0.023
    1UNL     C3    3  -0.198  -0.065   0.004
    1UNL     C4    4  -0.212   0.088  -0.012
    1UNL     C5    5  -0.127   0.162  -0.117
    1UNL     C6    6  -0.159   0.307  -0.134
    1UNL     O1    7  -0.069   0.389  -0.156
    1UNL     O2    8  -0.291   0.330  -0.114
    1UNL     C7    9  -0.306   0.474  -0.101
    1UNL     C8   10   0.002   0.108  -0.137
    1UNL     N1   11   0.111   0.192  -0.099
    1UNL     C9   12   0.203   0.124  -0.021
    1UNL    C10   13   0.309   0.172   0.051
    1UNL    C11   14   0.381   0.092   0.140
    1UNL     O3   15   0.478   0.154   0.215
    1UNL    C12   16   0.554   0.067   0.311
    1UNL    C13   17   0.344  -0.042   0.148
    1UNL    C14   18   0.229  -0.091   0.084
    1UNL    C15   19   0.158  -0.009  -0.001
    1UNL    C16   20   0.043  -0.029  -0.103
    1UNL    C17   21   0.113  -0.124  -0.217
    1UNL    C18   22   0.061  -0.265  -0.182
    1UNL     N2   23  -0.048  -0.256  -0.087
    1UNL    C19   24  -0.035  -0.331   0.045
    1UNL    C20   25  -0.093  -0.248   0.166
    1UNL     O4   26  -0.017  -0.123   0.170
    1UNL    C21   27  -0.156  -0.113   0.144
    1UNL    C22   28  -0.090  -0.116  -0.094
    1UNL     H1   29  -0.444  -0.319  -0.025
    1UNL     H2   30  -0.280  -0.326  -0.109
    1UNL     H3   31  -0.292  -0.334   0.073
    1UNL     H4   32  -0.366  -0.101  -0.123
    1UNL     H5   33  -0.400  -0.089   0.044
    1UNL     H6   34  -0.321   0.118  -0.034
    1UNL     H7   35  -0.185   0.129   0.081
    1UNL     H8   36  -0.412   0.504  -0.099
    1UNL     H9   37  -0.267   0.515  -0.006
    1UNL    H10   38  -0.259   0.521  -0.189
    1UNL    H11   39   0.096   0.294  -0.091
    1UNL    H12   40   0.346   0.273   0.045
    1UNL    H13   41   0.493   0.067   0.402
    1UNL    H14   42   0.652   0.120   0.322
    1UNL    H15   43   0.588  -0.026   0.262
    1UNL    H16   44   0.406  -0.107   0.200
    1UNL    H17   45   0.196  -0.193   0.097
    1UNL    H18   46   0.218  -0.109  -0.202
    1UNL    H19   47   0.077  -0.103  -0.320
    1UNL    H20   48   0.151  -0.322  -0.141
    1UNL    H21   49   0.042  -0.333  -0.264
    1UNL    H22   50   0.072  -0.363   0.056
    1UNL    H23   51  -0.084  -0.433   0.024
    1UNL    H24   52  -0.110  -0.302   0.263
    1UNL    H25   53  -0.212  -0.073   0.232
    1UNL    H26   54  -0.143  -0.097  -0.193
   0.00000   0.00000   0.00000   0.00000   0.00000   0.00000   0.00000   0.00000   0.00000
Generated with MDTraj, t= 64.0
 54
    1UNL     C1    1  -0.342  -0.291   0.007
    1UNL     C2    2  -0.338  -0.135  -0.018
    1UNL     C3    3  -0.196  -0.068   0.011
    1UNL     C4    4  -0.207   0.086  -0.001
    1UNL     C5    5  -0.116   0.160  -0.105
    1UNL     C6    6  -0.137   0.301  -0.114
    1UNL     O1    7  -0.059   0.370  -0.175
    1UNL     O2    8  -0.251   0.352  -0.053
    1UNL     C7    9  -0.266   0.483  -0.103
    1UNL     C8   10  -0.004   0.102  -0.144
    1UNL     N1   11   0.112   0.182  -0.131
    1UNL     C9   12   0.190   0.121  -0.031
    1UNL    C10   13   0.286   0.178   0.049
    1UNL    C11   14   0.357   0.102   0.140
    1UNL     O3   15   0.441   0.168   0.228
    1UNL    C12   16   0.509   0.081   0.324
    1UNL    C13   17   0.334  -0.037   0.141
    1UNL    C14   18   0.231  -0.090   0.070
    1UNL    C15   19   0.161  -0.012  -0.024
    1UNL    C16   20   0.039  -0.042  -0.119
    1UNL    C17   21   0.099  -0.123  -0.238
    1UNL    C18   22   0.066  -0.268  -0.202
    1UNL     N2   23  -0.052  -0.268  -0.093
    1UNL    C19   24  -0.020  -0.325   0.040
    1UNL    C20   25  -0.067  -0.244   0.162
    1UNL     O4   26  -0.012  -0.116   0.171
    1UNL    C21   27  -0.152  -0.116   0.154
    1UNL    C22   28  -0.092  -0.124  -0.092
    1UNL     H1   29  -0.435  -0.347  -0.012
    1UNL     H2   30  -0.259  -0.345  -0.057
    1UNL     H3   31  -0.315  -0.325   0.116
    1UNL     H4   32  -0.367  -0.111  -0.122
    1UNL     H5   33  -0.413  -0.097   0.041
    1UNL     H6   34  -0.314   0.107  -0.030
    1UNL     H7   35  -0.192   0.125   0.096
    1UNL     H8   36  -0.217   0.497  -0.200
    1UNL     H9   37  -0.372   0.495  -0.130
    1UNL    H10   38  -0.218   0.558  -0.036
    1UNL    H11   39   0.100   0.282  -0.131
    1UNL    H12   40   0.314   0.282   0.042
    1UNL    H13   41   0.432   0.019   0.369
    1UNL    H14   42   0.554   0.146   0.399
    1UNL    H15   43   0.593   0.041   0.269
    1UNL    H16   44   0.391  -0.111   0.199
    1UNL    H17   45   0.207  -0.190   0.088
    1UNL    H18   46   0.205  -0.107  -0.241
    1UNL    H19   47   0.042  -0.085  -0.325
    1UNL    H20   48   0.157  -0.331  -0.169
    1UNL    H21   49   0.044  -0.331  -0.289
    1UNL    H22   50   0.091  -0.352   0.037
    1UNL    H23   51  -0.065  -0.429   0.040
    1UNL    H24   52  -0.066  -0.302   0.257
    1UNL    H25   53  -0.205  -0.075   0.244
    1UNL    H26   54  -0.161  -0.106  -0.185
   0.00000   0.00000   0.00000   0.00000   0.00000   0.00000   0.00000   0.00000   0.00000
Generated with MDTraj, t= 65.0
 54
    1UNL     C1    1  -0.337  -0.276  -0.018
    1UNL     C2    2  -0.323  -0.130  -0.008
    1UNL     C3    3  -0.178  -0.070   0.019
    1UNL     C4    4  -0.190   0.089   0.004
    1UNL     C5    5  -0.116   0.159  -0.104
    1UNL     C6    6  -0.155   0.299  -0.128
    1UNL     O1    7  -0.098   0.369  -0.211
    1UNL     O2    8  -0.247   0.352  -0.044
    1UNL     C7    9  -0.239   0.488  -0.052
    1UNL     C8   10   0.004   0.103  -0.151
    1UNL     N1   11   0.120   0.181  -0.150
    1UNL     C9   12   0.205   0.116  -0.052
    1UNL    C10   13   0.303   0.170   0.031
    1UNL    C11   14   0.351   0.108   0.137
    1UNL     O3   15   0.449   0.162   0.220
    1UNL    C12   16   0.465   0.103   0.341
    1UNL    C13   17   0.304  -0.029   0.159
    1UNL    C14   18   0.209  -0.083   0.075
    1UNL    C15   19   0.157  -0.014  -0.031
    1UNL    C16   20   0.047  -0.043  -0.125
    1UNL    C17   21   0.096  -0.131  -0.242
    1UNL    C18   22   0.054  -0.270  -0.204
    1UNL     N2   23  -0.045  -0.267  -0.091
    1UNL    C19   24  -0.025  -0.327   0.039
    1UNL    C20   25  -0.067  -0.254   0.170
    1UNL     O4   26  -0.002  -0.133   0.195
    1UNL    C21   27  -0.136  -0.117   0.159
    1UNL    C22   28  -0.082  -0.125  -0.091
    1UNL     H1   29  -0.432  -0.314  -0.066
    1UNL     H2   30  -0.249  -0.324  -0.072
    1UNL     H3   31  -0.334  -0.327   0.090
    1UNL     H4   32  -0.363  -0.088  -0.103
    1UNL     H5   33  -0.388  -0.098   0.064
    1UNL     H6   34  -0.296   0.106  -0.004
    1UNL     H7   35  -0.152   0.138   0.092
    1UNL     H8   36  -0.164   0.531   0.013
    1UNL     H9   37  -0.220   0.505  -0.157
    1UNL    H10   38  -0.335   0.529  -0.015
    1UNL    H11   39   0.120   0.279  -0.161
    1UNL    H12   40   0.340   0.266   0.003
    1UNL    H13   41   0.363   0.094   0.377
    1UNL    H14   42   0.525   0.167   0.404
    1UNL    H15   43   0.528   0.019   0.321
    1UNL    H16   44   0.355  -0.102   0.224
    1UNL    H17   45   0.182  -0.188   0.083
    1UNL    H18   46   0.204  -0.130  -0.244
    1UNL    H19   47   0.042  -0.089  -0.330
    1UNL    H20   48   0.127  -0.357  -0.179
    1UNL    H21   49  -0.001  -0.319  -0.283
    1UNL    H22   50   0.086  -0.354   0.043
    1UNL    H23   51  -0.073  -0.430   0.027
    1UNL    H24   52  -0.088  -0.315   0.259
    1UNL    H25   53  -0.201  -0.082   0.241
    1UNL    H26   54  -0.152  -0.121  -0.186
   0.00000   0.00000   0.00000   0.00000   0.00000   0.00000   0.00000   0.00000   0.00000
Generated with MDTraj, t= 66.0
 54
    1UNL     C1    1  -0.370  -0.243  -0.048
    1UNL     C2    2  -0.335  -0.103  -0.016
    1UNL     C3    3  -0.181  -0.077   0.018
    1UNL     C4    4  -0.169   0.078   0.016
    1UNL     C5    5  -0.106   0.150  -0.096
    1UNL     C6    6  -0.145   0.293  -0.116
    1UNL     O1    7  -0.098   0.364  -0.205
    1UNL     O2    8  -0.235   0.344  -0.024
    1UNL     C7    9  -0.243   0.483  -0.043
    1UNL     C8   10   0.007   0.101  -0.157
    1UNL     N1   11   0.126   0.178  -0.153
    1UNL     C9   12   0.193   0.122  -0.047
    1UNL    C10   13   0.298   0.179   0.018
    1UNL    C11   14   0.367   0.110   0.119
    1UNL     O3   15   0.466   0.177   0.199
    1UNL    C12   16   0.450   0.153   0.338
    1UNL    C13   17   0.328  -0.025   0.148
    1UNL    C14   18   0.230  -0.084   0.068
    1UNL    C15   19   0.156  -0.010  -0.022
    1UNL    C16   20   0.050  -0.046  -0.117
    1UNL    C17   21   0.115  -0.135  -0.226
    1UNL    C18   22   0.070  -0.279  -0.185
    1UNL     N2   23  -0.047  -0.269  -0.090
    1UNL    C19   24  -0.041  -0.348   0.039
    1UNL    C20   25  -0.088  -0.276   0.166
    1UNL     O4   26  -0.021  -0.158   0.200
    1UNL    C21   27  -0.156  -0.139   0.149
    1UNL    C22   28  -0.087  -0.122  -0.091
    1UNL     H1   29  -0.485  -0.257  -0.070
    1UNL     H2   30  -0.309  -0.287  -0.130
    1UNL     H3   31  -0.344  -0.302   0.045
    1UNL     H4   32  -0.370  -0.039  -0.097
    1UNL     H5   33  -0.392  -0.071   0.067
    1UNL     H6   34  -0.260   0.126   0.028
    1UNL     H7   35  -0.102   0.097   0.101
    1UNL     H8   36  -0.274   0.537   0.045
    1UNL     H9   37  -0.146   0.509  -0.084
    1UNL    H10   38  -0.326   0.501  -0.116
    1UNL    H11   39   0.120   0.276  -0.159
    1UNL    H12   40   0.322   0.284   0.005
    1UNL    H13   41   0.343   0.150   0.355
    1UNL    H14   42   0.502   0.227   0.398
    1UNL    H15   43   0.492   0.057   0.347
    1UNL    H16   44   0.383  -0.092   0.207
    1UNL    H17   45   0.211  -0.189   0.092
    1UNL    H18   46   0.222  -0.126  -0.213
    1UNL    H19   47   0.071  -0.089  -0.316
    1UNL    H20   48   0.146  -0.354  -0.139
    1UNL    H21   49   0.029  -0.345  -0.260
    1UNL    H22   50   0.061  -0.394   0.052
    1UNL    H23   51  -0.113  -0.436   0.025
    1UNL    H24   52  -0.111  -0.341   0.251
    1UNL    H25   53  -0.225  -0.097   0.222
    1UNL    H26   54  -0.149  -0.120  -0.189
   0.00000   0.00000   0.00000   0.00000   0.00000   0.00000   0.00000   0.00000   0.00000
Generated with MDTraj, t= 67.0
 54
    1UNL     C1    1  -0.367  -0.245  -0.063
    1UNL     C2    2  -0.337  -0.094  -0.038
    1UNL     C3    3  -0.190  -0.074   0.019
    1UNL     C4    4  -0.171   0.081   0.036
    1UNL     C5    5  -0.103   0.153  -0.073
    1UNL     C6    6  -0.133   0.288  -0.094
    1UNL     O1    7  -0.071   0.353  -0.177
    1UNL     O2    8  -0.239   0.346  -0.023
    1UNL     C7    9  -0.258   0.480  -0.057
    1UNL     C8   10   0.003   0.099  -0.148
    1UNL     N1   11   0.132   0.170  -0.154
    1UNL     C9   12   0.215   0.114  -0.057
    1UNL    C10   13   0.323   0.169   0.003
    1UNL    C11   14   0.376   0.114   0.118
    1UNL     O3   15   0.478   0.184   0.180
    1UNL    C12   16   0.465   0.185   0.319
    1UNL    C13   17   0.318  -0.003   0.160
    1UNL    C14   18   0.215  -0.073   0.092
    1UNL    C15   19   0.159  -0.011  -0.017
    1UNL    C16   20   0.045  -0.046  -0.115
    1UNL    C17   21   0.099  -0.135  -0.231
    1UNL    C18   22   0.061  -0.275  -0.189
    1UNL     N2   23  -0.051  -0.271  -0.093
    1UNL    C19   24  -0.034  -0.350   0.030
    1UNL    C20   25  -0.097  -0.294   0.161
    1UNL     O4   26  -0.046  -0.169   0.198
    1UNL    C21   27  -0.175  -0.161   0.150
    1UNL    C22   28  -0.091  -0.123  -0.088
    1UNL     H1   29  -0.474  -0.274  -0.105
    1UNL     H2   30  -0.285  -0.298  -0.120
    1UNL     H3   31  -0.361  -0.293   0.034
    1UNL     H4   32  -0.344  -0.030  -0.124
    1UNL     H5   33  -0.411  -0.049   0.029
    1UNL     H6   34  -0.262   0.123   0.057
    1UNL     H7   35  -0.102   0.097   0.119
    1UNL     H8   36  -0.357   0.492  -0.098
    1UNL     H9   37  -0.235   0.531   0.036
    1UNL    H10   38  -0.185   0.515  -0.136
    1UNL    H11   39   0.126   0.269  -0.165
    1UNL    H12   40   0.351   0.271  -0.013
    1UNL    H13   41   0.369   0.236   0.344
    1UNL    H14   42   0.550   0.243   0.356
    1UNL    H15   43   0.458   0.085   0.354
    1UNL    H16   44   0.362  -0.051   0.252
    1UNL    H17   45   0.194  -0.174   0.116
    1UNL    H18   46   0.208  -0.122  -0.230
    1UNL    H19   47   0.043  -0.104  -0.320
    1UNL    H20   48   0.143  -0.329  -0.126
    1UNL    H21   49   0.044  -0.351  -0.264
    1UNL    H22   50   0.076  -0.364   0.052
    1UNL    H23   51  -0.077  -0.453   0.005
    1UNL    H24   52  -0.109  -0.357   0.248
    1UNL    H25   53  -0.250  -0.138   0.223
    1UNL    H26   54  -0.139  -0.120  -0.188
   0.00000   0.00000   0.00000   0.00000   0.00000   0.00000   0.00000   0.00000   0.00000
Generated with MDTraj, t= 68.0
 54
    1UNL     C1    1  -0.348  -0.253  -0.069
    1UNL     C2    2  -0.330  -0.110  -0.031
    1UNL     C3    3  -0.187  -0.069   0.016
    1UNL     C4    4  -0.186   0.082   0.022
    1UNL     C5    5  -0.109   0.152  -0.095
    1UNL     C6    6  -0.135   0.294  -0.098
    1UNL     O1    7  -0.060   0.371  -0.153
    1UNL     O2    8  -0.253   0.332  -0.043
    1UNL     C7    9  -0.270   0.470  -0.049
    1UNL     C8   10   0.005   0.092  -0.153
    1UNL     N1   11   0.131   0.167  -0.156
    1UNL     C9   12   0.214   0.110  -0.057
    1UNL    C10   13   0.332   0.153  -0.005
    1UNL    C11   14   0.375   0.099   0.113
    1UNL     O3   15   0.493   0.159   0.167
    1UNL    C12   16   0.487   0.186   0.311
    1UNL    C13   17   0.303   0.005   0.186
    1UNL    C14   18   0.190  -0.045   0.130
    1UNL    C15   19   0.147  -0.001   0.004
    1UNL    C16   20   0.046  -0.043  -0.115
    1UNL    C17   21   0.110  -0.143  -0.216
    1UNL    C18   22   0.034  -0.277  -0.207
    1UNL     N2   23  -0.068  -0.263  -0.095
    1UNL    C19   24  -0.013  -0.324   0.023
    1UNL    C20   25  -0.090  -0.288   0.152
    1UNL     O4   26  -0.039  -0.171   0.212
    1UNL    C21   27  -0.168  -0.149   0.151
    1UNL    C22   28  -0.090  -0.118  -0.092
    1UNL     H1   29  -0.452  -0.276  -0.088
    1UNL     H2   30  -0.276  -0.285  -0.155
    1UNL     H3   31  -0.316  -0.315   0.016
    1UNL     H4   32  -0.360  -0.050  -0.113
    1UNL     H5   33  -0.403  -0.082   0.052
    1UNL     H6   34  -0.286   0.114   0.021
    1UNL     H7   35  -0.144   0.106   0.119
    1UNL     H8   36  -0.241   0.510  -0.146
    1UNL     H9   37  -0.369   0.492  -0.010
    1UNL    H10   38  -0.199   0.512   0.031
    1UNL    H11   39   0.123   0.272  -0.163
    1UNL    H12   40   0.379   0.242  -0.047
    1UNL    H13   41   0.380   0.188   0.350
    1UNL    H14   42   0.527   0.290   0.321
    1UNL    H15   43   0.532   0.107   0.369
    1UNL    H16   44   0.344  -0.027   0.275
    1UNL    H17   45   0.145  -0.141   0.164
    1UNL    H18   46   0.211  -0.163  -0.179
    1UNL    H19   47   0.103  -0.112  -0.321
    1UNL    H20   48   0.107  -0.368  -0.200
    1UNL    H21   49  -0.019  -0.311  -0.296
    1UNL    H22   50   0.093  -0.290   0.033
    1UNL    H23   51  -0.016  -0.439   0.008
    1UNL    H24   52  -0.124  -0.364   0.220
    1UNL    H25   53  -0.251  -0.137   0.218
    1UNL    H26   54  -0.140  -0.106  -0.185
   0.00000   0.00000   0.00000   0.00000   0.00000   0.00000   0.00000   0.00000   0.00000
Generated with MDTraj, t= 69.0
 54
    1UNL     C1    1  -0.375  -0.256  -0.054
    1UNL     C2    2  -0.340  -0.115  -0.046
    1UNL     C3    3  -0.201  -0.079   0.013
    1UNL     C4    4  -0.205   0.076   0.018
    1UNL     C5    5  -0.119   0.147  -0.095
    1UNL     C6    6  -0.144   0.290  -0.098
    1UNL     O1    7  -0.061   0.361  -0.150
    1UNL     O2    8  -0.259   0.342  -0.048
    1UNL     C7    9  -0.264   0.484  -0.074
    1UNL     C8   10   0.003   0.103  -0.138
    1UNL     N1   11   0.120   0.178  -0.137
    1UNL     C9   12   0.209   0.112  -0.045
    1UNL    C10   13   0.317   0.177   0.015
    1UNL    C11   14   0.387   0.109   0.116
    1UNL     O3   15   0.486   0.188   0.180
    1UNL    C12   16   0.516   0.147   0.312
    1UNL    C13   17   0.334  -0.017   0.156
    1UNL    C14   18   0.217  -0.073   0.107
    1UNL    C15   19   0.160  -0.009  -0.005
    1UNL    C16   20   0.043  -0.040  -0.112
    1UNL    C17   21   0.105  -0.127  -0.222
    1UNL    C18   22   0.057  -0.277  -0.192
    1UNL     N2   23  -0.056  -0.277  -0.093
    1UNL    C19   24  -0.010  -0.334   0.035
    1UNL    C20   25  -0.089  -0.274   0.153
    1UNL     O4   26  -0.043  -0.144   0.196
    1UNL    C21   27  -0.177  -0.154   0.151
    1UNL    C22   28  -0.088  -0.130  -0.090
    1UNL     H1   29  -0.477  -0.258  -0.071
    1UNL     H2   30  -0.316  -0.318  -0.126
    1UNL     H3   31  -0.363  -0.307   0.047
    1UNL     H4   32  -0.348  -0.078  -0.144
    1UNL     H5   33  -0.419  -0.061   0.019
    1UNL     H6   34  -0.309   0.108   0.015
    1UNL     H7   35  -0.171   0.099   0.117
    1UNL     H8   36  -0.164   0.524  -0.080
    1UNL     H9   37  -0.326   0.505  -0.160
    1UNL    H10   38  -0.320   0.527   0.018
    1UNL    H11   39   0.108   0.284  -0.142
    1UNL    H12   40   0.339   0.279  -0.009
    1UNL    H13   41   0.438   0.188   0.386
    1UNL    H14   42   0.612   0.201   0.337
    1UNL    H15   43   0.508   0.041   0.323
    1UNL    H16   44   0.386  -0.071   0.235
    1UNL    H17   45   0.179  -0.170   0.128
    1UNL    H18   46   0.213  -0.106  -0.223
    1UNL    H19   47   0.062  -0.109  -0.319
    1UNL    H20   48   0.149  -0.331  -0.150
    1UNL    H21   49   0.048  -0.339  -0.281
    1UNL    H22   50   0.097  -0.316   0.057
    1UNL    H23   51  -0.034  -0.447   0.039
    1UNL    H24   52  -0.099  -0.341   0.237
    1UNL    H25   53  -0.248  -0.132   0.231
    1UNL    H26   54  -0.136  -0.108  -0.181
   0.00000   0.00000   0.00000   0.00000   0.00000   0.00000   0.00000   0.00000   0.00000
Generated with MDTraj, t= 70.0
 54
    1UNL     C1    1  -0.324  -0.285  -0.033
    1UNL     C2    2  -0.330  -0.127  -0.040
    1UNL     C3    3  -0.194  -0.068   0.008
    1UNL     C4    4  -0.207   0.084   0.007
    1UNL     C5    5  -0.123   0.150  -0.098
    1UNL     C6    6  -0.153   0.299  -0.116
    1UNL     O1    7  -0.084   0.371  -0.188
    1UNL     O2    8  -0.264   0.342  -0.053
    1UNL     C7    9  -0.290   0.482  -0.077
    1UNL     C8   10   0.009   0.110  -0.142
    1UNL     N1   11   0.118   0.192  -0.137
    1UNL     C9   12   0.201   0.135  -0.037
    1UNL    C10   13   0.305   0.190   0.039
    1UNL    C11   14   0.376   0.104   0.125
    1UNL     O3   15   0.477   0.163   0.206
    1UNL    C12   16   0.539   0.082   0.295
    1UNL    C13   17   0.342  -0.036   0.134
    1UNL    C14   18   0.222  -0.084   0.084
    1UNL    C15   19   0.158  -0.000  -0.009
    1UNL    C16   20   0.049  -0.028  -0.111
    1UNL    C17   21   0.111  -0.127  -0.220
    1UNL    C18   22   0.068  -0.268  -0.175
    1UNL     N2   23  -0.047  -0.262  -0.088
    1UNL    C19   24  -0.038  -0.337   0.043
    1UNL    C20   25  -0.101  -0.266   0.175
    1UNL     O4   26  -0.039  -0.141   0.201
    1UNL    C21   27  -0.171  -0.124   0.155
    1UNL    C22   28  -0.083  -0.116  -0.090
    1UNL     H1   29  -0.422  -0.319  -0.059
    1UNL     H2   30  -0.249  -0.335  -0.087
    1UNL     H3   31  -0.315  -0.326   0.071
    1UNL     H4   32  -0.339  -0.094  -0.139
    1UNL     H5   33  -0.418  -0.090   0.024
    1UNL     H6   34  -0.317   0.107  -0.002
    1UNL     H7   35  -0.175   0.128   0.097
    1UNL     H8   36  -0.295   0.531   0.020
    1UNL     H9   37  -0.217   0.530  -0.136
    1UNL    H10   38  -0.394   0.489  -0.126
    1UNL    H11   39   0.106   0.296  -0.143
    1UNL    H12   40   0.322   0.296   0.041
    1UNL    H13   41   0.473   0.004   0.346
    1UNL    H14   42   0.575   0.149   0.378
    1UNL    H15   43   0.615   0.027   0.246
    1UNL    H16   44   0.414  -0.103   0.182
    1UNL    H17   45   0.199  -0.187   0.094
    1UNL    H18   46   0.217  -0.102  -0.238
    1UNL    H19   47   0.053  -0.112  -0.310
    1UNL    H20   48   0.161  -0.314  -0.131
    1UNL    H21   49   0.058  -0.326  -0.267
    1UNL    H22   50   0.067  -0.358   0.070
    1UNL    H23   51  -0.097  -0.435   0.034
    1UNL    H24   52  -0.123  -0.319   0.267
    1UNL    H25   53  -0.253  -0.102   0.225
    1UNL    H26   54  -0.134  -0.102  -0.183
   0.00000   0.00000   0.00000   0.00000   0.00000   0.00000   0.00000   0.00000   0.00000
Generated with MDTraj, t= 71.0
 54
    1UNL     C1    1  -0.334  -0.282  -0.047
    1UNL     C2    2  -0.333  -0.129  -0.010
    1UNL     C3    3  -0.194  -0.068   0.010
    1UNL     C4    4  -0.214   0.086   0.000
    1UNL     C5    5  -0.125   0.155  -0.101
    1UNL     C6    6  -0.171   0.296  -0.129
    1UNL     O1    7  -0.110   0.365  -0.211
    1UNL     O2    8  -0.292   0.340  -0.080
    1UNL     C7    9  -0.295   0.478  -0.089
    1UNL     C8   10  -0.001   0.118  -0.144
    1UNL     N1   11   0.110   0.197  -0.112
    1UNL     C9   12   0.194   0.131  -0.017
    1UNL    C10   13   0.293   0.178   0.065
    1UNL    C11   14   0.368   0.087   0.147
    1UNL     O3   15   0.490   0.135   0.206
    1UNL    C12   16   0.561   0.037   0.279
    1UNL    C13   17   0.316  -0.045   0.162
    1UNL    C14   18   0.209  -0.093   0.086
    1UNL    C15   19   0.150  -0.007  -0.002
    1UNL    C16   20   0.042  -0.027  -0.108
    1UNL    C17   21   0.111  -0.108  -0.222
    1UNL    C18   22   0.084  -0.261  -0.183
    1UNL     N2   23  -0.029  -0.260  -0.084
    1UNL    C19   24  -0.017  -0.322   0.046
    1UNL    C20   25  -0.052  -0.235   0.172
    1UNL     O4   26  -0.011  -0.098   0.182
    1UNL    C21   27  -0.145  -0.112   0.154
    1UNL    C22   28  -0.090  -0.119  -0.098
    1UNL     H1   29  -0.441  -0.303  -0.065
    1UNL     H2   30  -0.273  -0.313  -0.125
    1UNL     H3   31  -0.314  -0.345   0.030
    1UNL     H4   32  -0.376  -0.070  -0.089
    1UNL     H5   33  -0.392  -0.115   0.086
    1UNL     H6   34  -0.319   0.120  -0.033
    1UNL     H7   35  -0.200   0.128   0.095
    1UNL     H8   36  -0.398   0.494  -0.118
    1UNL     H9   37  -0.279   0.526   0.003
    1UNL    H10   38  -0.238   0.515  -0.181
    1UNL    H11   39   0.100   0.296  -0.089
    1UNL    H12   40   0.326   0.280   0.057
    1UNL    H13   41   0.540   0.027   0.390
    1UNL    H14   42   0.669   0.055   0.287
    1UNL    H15   43   0.551  -0.055   0.231
    1UNL    H16   44   0.369  -0.114   0.218
    1UNL    H17   45   0.170  -0.194   0.103
    1UNL    H18   46   0.220  -0.081  -0.225
    1UNL    H19   47   0.058  -0.070  -0.308
    1UNL    H20   48   0.182  -0.301  -0.148
    1UNL    H21   49   0.059  -0.322  -0.270
    1UNL    H22   50   0.090  -0.348   0.064
    1UNL    H23   51  -0.085  -0.414   0.054
    1UNL    H24   52  -0.035  -0.287   0.267
    1UNL    H25   53  -0.219  -0.087   0.233
    1UNL    H26   54  -0.142  -0.121  -0.193
   0.00000   0.00000   0.00000   0.00000   0.00000   0.00000   0.00000   0.00000   0.00000
Generated with MDTraj, t= 72.0
 54
    1UNL     C1    1  -0.331  -0.279  -0.028
    1UNL     C2    2  -0.331  -0.134  -0.035
    1UNL     C3    3  -0.202  -0.070   0.012
    1UNL     C4    4  -0.218   0.085   0.004
    1UNL     C5    5  -0.131   0.163  -0.089
    1UNL     C6    6  -0.166   0.300  -0.121
    1UNL     O1    7  -0.103   0.377  -0.191
    1UNL     O2    8  -0.290   0.339  -0.082
    1UNL     C7    9  -0.324   0.460  -0.142
    1UNL     C8   10  -0.003   0.126  -0.123
    1UNL     N1   11   0.109   0.208  -0.096
    1UNL     C9   12   0.197   0.131   0.001
    1UNL    C10   13   0.314   0.180   0.062
    1UNL    C11   14   0.384   0.087   0.139
    1UNL     O3   15   0.488   0.135   0.224
    1UNL    C12   16   0.586   0.040   0.263
    1UNL    C13   17   0.347  -0.046   0.128
    1UNL    C14   18   0.234  -0.097   0.067
    1UNL    C15   19   0.161  -0.004  -0.001
    1UNL    C16   20   0.050  -0.021  -0.106
    1UNL    C17   21   0.110  -0.107  -0.220
    1UNL    C18   22   0.067  -0.256  -0.193
    1UNL     N2   23  -0.039  -0.258  -0.083
    1UNL    C19   24  -0.021  -0.322   0.054
    1UNL    C20   25  -0.094  -0.251   0.176
    1UNL     O4   26  -0.030  -0.123   0.195
    1UNL    C21   27  -0.162  -0.113   0.155
    1UNL    C22   28  -0.083  -0.108  -0.084
    1UNL     H1   29  -0.418  -0.316  -0.081
    1UNL     H2   30  -0.243  -0.327  -0.059
    1UNL     H3   31  -0.350  -0.311   0.069
    1UNL     H4   32  -0.349  -0.109  -0.144
    1UNL     H5   33  -0.412  -0.088   0.026
    1UNL     H6   34  -0.325   0.113  -0.027
    1UNL     H7   35  -0.202   0.130   0.098
    1UNL     H8   36  -0.291   0.444  -0.245
    1UNL     H9   37  -0.428   0.476  -0.135
    1UNL    H10   38  -0.257   0.548  -0.116
    1UNL    H11   39   0.100   0.312  -0.097
    1UNL    H12   40   0.344   0.283   0.048
    1UNL    H13   41   0.552  -0.042   0.330
    1UNL    H14   42   0.661   0.077   0.332
    1UNL    H15   43   0.634   0.003   0.178
    1UNL    H16   44   0.414  -0.118   0.182
    1UNL    H17   45   0.216  -0.204   0.069
    1UNL    H18   46   0.221  -0.125  -0.217
    1UNL    H19   47   0.082  -0.073  -0.318
    1UNL    H20   48   0.145  -0.334  -0.175
    1UNL    H21   49   0.010  -0.293  -0.279
    1UNL    H22   50   0.086  -0.332   0.084
    1UNL    H23   51  -0.070  -0.425   0.054
    1UNL    H24   52  -0.087  -0.298   0.277
    1UNL    H25   53  -0.231  -0.082   0.237
    1UNL    H26   54  -0.127  -0.101  -0.188
   0.00000   0.00000   0.00000   0.00000   0.00000   0.00000   0.00000   0.00000   0.00000
Generated with MDTraj, t= 73.0
 54
    1UNL     C1    1  -0.352  -0.277  -0.024
    1UNL     C2    2  -0.340  -0.123  -0.023
    1UNL     C3    3  -0.203  -0.065   0.013
    1UNL     C4    4  -0.210   0.089   0.020
    1UNL     C5    5  -0.130   0.159  -0.091
    1UNL     C6    6  -0.163   0.295  -0.119
    1UNL     O1    7  -0.082   0.385  -0.137
    1UNL     O2    8  -0.297   0.318  -0.140
    1UNL     C7    9  -0.321   0.451  -0.156
    1UNL     C8   10   0.001   0.123  -0.125
    1UNL     N1   11   0.107   0.202  -0.080
    1UNL     C9   12   0.193   0.127   0.005
    1UNL    C10   13   0.316   0.177   0.058
    1UNL    C11   14   0.395   0.094   0.133
    1UNL     O3   15   0.512   0.153   0.192
    1UNL    C12   16   0.598   0.062   0.260
    1UNL    C13   17   0.356  -0.043   0.143
    1UNL    C14   18   0.241  -0.093   0.083
    1UNL    C15   19   0.154  -0.008   0.014
    1UNL    C16   20   0.048  -0.024  -0.095
    1UNL    C17   21   0.103  -0.099  -0.210
    1UNL    C18   22   0.070  -0.251  -0.195
    1UNL     N2   23  -0.046  -0.256  -0.091
    1UNL    C19   24  -0.036  -0.332   0.035
    1UNL    C20   25  -0.099  -0.260   0.155
    1UNL     O4   26  -0.040  -0.136   0.191
    1UNL    C21   27  -0.173  -0.121   0.155
    1UNL    C22   28  -0.085  -0.111  -0.084
    1UNL     H1   29  -0.441  -0.313  -0.051
    1UNL     H2   30  -0.274  -0.317  -0.080
    1UNL     H3   31  -0.339  -0.314   0.078
    1UNL     H4   32  -0.371  -0.079  -0.128
    1UNL     H5   33  -0.413  -0.081   0.048
    1UNL     H6   34  -0.319   0.119   0.014
    1UNL     H7   35  -0.175   0.127   0.115
    1UNL     H8   36  -0.227   0.486  -0.206
    1UNL     H9   37  -0.414   0.466  -0.203
    1UNL    H10   38  -0.317   0.515  -0.062
    1UNL    H11   39   0.099   0.302  -0.065
    1UNL    H12   40   0.349   0.273   0.020
    1UNL    H13   41   0.544   0.023   0.347
    1UNL    H14   42   0.688   0.093   0.308
    1UNL    H15   43   0.626  -0.017   0.196
    1UNL    H16   44   0.430  -0.105   0.184
    1UNL    H17   45   0.222  -0.197   0.083
    1UNL    H18   46   0.216  -0.104  -0.215
    1UNL    H19   47   0.062  -0.052  -0.299
    1UNL    H20   48   0.144  -0.311  -0.137
    1UNL    H21   49   0.034  -0.301  -0.286
    1UNL    H22   50   0.070  -0.357   0.060
    1UNL    H23   51  -0.098  -0.424   0.015
    1UNL    H24   52  -0.112  -0.328   0.242
    1UNL    H25   53  -0.251  -0.093   0.229
    1UNL    H26   54  -0.128  -0.102  -0.192
   0.00000   0.00000   0.00000   0.00000   0.00000   0.00000   0.00000   0.00000   0.00000
Generated with MDTraj, t= 74.0
 54
    1UNL     C1    1  -0.347  -0.273  -0.059
    1UNL     C2    2  -0.342  -0.122  -0.018
    1UNL     C3    3  -0.197  -0.074   0.015
    1UNL     C4    4  -0.203   0.085   0.025
    1UNL     C5    5  -0.122   0.160  -0.079
    1UNL     C6    6  -0.164   0.304  -0.104
    1UNL     O1    7  -0.093   0.400  -0.085
    1UNL     O2    8  -0.288   0.323  -0.147
    1UNL     C7    9  -0.322   0.456  -0.183
    1UNL     C8   10  -0.002   0.114  -0.124
    1UNL     N1   11   0.116   0.192  -0.107
    1UNL     C9   12   0.193   0.134  -0.008
    1UNL    C10   13   0.324   0.177   0.031
    1UNL    C11   14   0.393   0.096   0.122
    1UNL     O3   15   0.520   0.137   0.170
    1UNL    C12   16   0.583   0.054   0.257
    1UNL    C13   17   0.332  -0.022   0.165
    1UNL    C14   18   0.214  -0.073   0.115
    1UNL    C15   19   0.143   0.002   0.022
    1UNL    C16   20   0.039  -0.029  -0.093
    1UNL    C17   21   0.115  -0.110  -0.202
    1UNL    C18   22   0.060  -0.256  -0.200
    1UNL     N2   23  -0.051  -0.256  -0.091
    1UNL    C19   24  -0.019  -0.326   0.038
    1UNL    C20   25  -0.082  -0.266   0.168
    1UNL     O4   26  -0.031  -0.142   0.194
    1UNL    C21   27  -0.166  -0.134   0.156
    1UNL    C22   28  -0.091  -0.113  -0.085
    1UNL     H1   29  -0.439  -0.310  -0.084
    1UNL     H2   30  -0.276  -0.289  -0.132
    1UNL     H3   31  -0.314  -0.329   0.027
    1UNL     H4   32  -0.388  -0.048  -0.100
    1UNL     H5   33  -0.410  -0.103   0.065
    1UNL     H6   34  -0.307   0.122   0.022
    1UNL     H7   35  -0.166   0.105   0.129
    1UNL     H8   36  -0.263   0.488  -0.272
    1UNL     H9   37  -0.428   0.469  -0.184
    1UNL    H10   38  -0.285   0.530  -0.106
    1UNL    H11   39   0.103   0.289  -0.106
    1UNL    H12   40   0.368   0.267  -0.010
    1UNL    H13   41   0.526   0.057   0.352
    1UNL    H14   42   0.684   0.075   0.282
    1UNL    H15   43   0.581  -0.049   0.221
    1UNL    H16   44   0.378  -0.076   0.248
    1UNL    H17   45   0.177  -0.170   0.146
    1UNL    H18   46   0.226  -0.104  -0.188
    1UNL    H19   47   0.093  -0.044  -0.287
    1UNL    H20   48   0.126  -0.335  -0.158
    1UNL    H21   49   0.019  -0.275  -0.300
    1UNL    H22   50   0.092  -0.316   0.048
    1UNL    H23   51  -0.049  -0.434   0.027
    1UNL    H24   52  -0.075  -0.321   0.265
    1UNL    H25   53  -0.229  -0.102   0.238
    1UNL    H26   54  -0.143  -0.101  -0.189
   0.00000   0.00000   0.00000   0.00000   0.00000   0.00000   0.00000   0.00000   0.00000
Generated with MDTraj, t= 75.0
 54
    1UNL     C1    1  -0.335  -0.274  -0.066
    1UNL     C2    2  -0.327  -0.130  -0.033
    1UNL     C3    3  -0.195  -0.076   0.024
    1UNL     C4    4  -0.201   0.089   0.035
    1UNL     C5    5  -0.123   0.167  -0.067
    1UNL     C6    6  -0.160   0.306  -0.100
    1UNL     O1    7  -0.078   0.394  -0.117
    1UNL     O2    8  -0.292   0.333  -0.113
    1UNL     C7    9  -0.311   0.460  -0.177
    1UNL     C8   10  -0.000   0.120  -0.121
    1UNL     N1   11   0.117   0.193  -0.119
    1UNL     C9   12   0.209   0.119  -0.043
    1UNL    C10   13   0.326   0.167   0.018
    1UNL    C11   14   0.388   0.101   0.127
    1UNL     O3   15   0.506   0.149   0.184
    1UNL    C12   16   0.572   0.054   0.257
    1UNL    C13   17   0.329  -0.014   0.169
    1UNL    C14   18   0.214  -0.064   0.108
    1UNL    C15   19   0.153   0.003   0.004
    1UNL    C16   20   0.036  -0.021  -0.097
    1UNL    C17   21   0.091  -0.102  -0.224
    1UNL    C18   22   0.064  -0.252  -0.188
    1UNL     N2   23  -0.043  -0.260  -0.092
    1UNL    C19   24  -0.015  -0.336   0.046
    1UNL    C20   25  -0.099  -0.274   0.168
    1UNL     O4   26  -0.045  -0.151   0.221
    1UNL    C21   27  -0.174  -0.143   0.159
    1UNL    C22   28  -0.084  -0.121  -0.076
    1UNL     H1   29  -0.428  -0.302  -0.120
    1UNL     H2   30  -0.254  -0.304  -0.122
    1UNL     H3   31  -0.337  -0.330   0.022
    1UNL     H4   32  -0.360  -0.067  -0.127
    1UNL     H5   33  -0.409  -0.101   0.036
    1UNL     H6   34  -0.307   0.116   0.037
    1UNL     H7   35  -0.159   0.127   0.137
    1UNL     H8   36  -0.255   0.475  -0.271
    1UNL     H9   37  -0.412   0.480  -0.194
    1UNL    H10   38  -0.287   0.531  -0.094
    1UNL    H11   39   0.109   0.293  -0.114
    1UNL    H12   40   0.366   0.263  -0.004
    1UNL    H13   41   0.509   0.017   0.340
    1UNL    H14   42   0.665   0.091   0.296
    1UNL    H15   43   0.591  -0.039   0.198
    1UNL    H16   44   0.370  -0.073   0.253
    1UNL    H17   45   0.166  -0.154   0.144
    1UNL    H18   46   0.200  -0.077  -0.239
    1UNL    H19   47   0.049  -0.060  -0.317
    1UNL    H20   48   0.159  -0.297  -0.154
    1UNL    H21   49   0.024  -0.295  -0.282
    1UNL    H22   50   0.094  -0.336   0.069
    1UNL    H23   51  -0.043  -0.442   0.029
    1UNL    H24   52  -0.105  -0.349   0.250
    1UNL    H25   53  -0.253  -0.119   0.228
    1UNL    H26   54  -0.148  -0.107  -0.171
   0.00000   0.00000   0.00000   0.00000   0.00000   0.00000   0.00000   0.00000   0.00000
Generated with MDTraj, t= 76.0
 54
    1UNL     C1    1  -0.368  -0.259  -0.043
    1UNL     C2    2  -0.336  -0.109  -0.034
    1UNL     C3    3  -0.193  -0.074   0.012
    1UNL     C4    4  -0.192   0.084   0.018
    1UNL     C5    5  -0.123   0.150  -0.101
    1UNL     C6    6  -0.159   0.289  -0.129
    1UNL     O1    7  -0.091   0.373  -0.185
    1UNL     O2    8  -0.279   0.326  -0.077
    1UNL     C7    9  -0.301   0.463  -0.097
    1UNL     C8   10   0.004   0.103  -0.137
    1UNL     N1   11   0.121   0.185  -0.110
    1UNL     C9   12   0.194   0.131  -0.009
    1UNL    C10   13   0.300   0.182   0.051
    1UNL    C11   14   0.382   0.101   0.127
    1UNL     O3   15   0.494   0.159   0.185
    1UNL    C12   16   0.573   0.082   0.272
    1UNL    C13   17   0.342  -0.028   0.151
    1UNL    C14   18   0.226  -0.078   0.097
    1UNL    C15   19   0.148  -0.001   0.021
    1UNL    C16   20   0.048  -0.037  -0.096
    1UNL    C17   21   0.122  -0.114  -0.209
    1UNL    C18   22   0.074  -0.268  -0.188
    1UNL     N2   23  -0.054  -0.261  -0.095
    1UNL    C19   24  -0.040  -0.334   0.035
    1UNL    C20   25  -0.094  -0.256   0.158
    1UNL     O4   26  -0.030  -0.139   0.196
    1UNL    C21   27  -0.163  -0.117   0.154
    1UNL    C22   28  -0.083  -0.124  -0.089
    1UNL     H1   29  -0.478  -0.282  -0.046
    1UNL     H2   30  -0.323  -0.296  -0.131
    1UNL     H3   31  -0.335  -0.313   0.037
    1UNL     H4   32  -0.363  -0.057  -0.132
    1UNL     H5   33  -0.412  -0.062   0.037
    1UNL     H6   34  -0.292   0.124   0.028
    1UNL     H7   35  -0.138   0.112   0.119
    1UNL     H8   36  -0.297   0.497  -0.202
    1UNL     H9   37  -0.398   0.484  -0.062
    1UNL    H10   38  -0.244   0.507  -0.011
    1UNL    H11   39   0.115   0.289  -0.126
    1UNL    H12   40   0.321   0.288   0.042
    1UNL    H13   41   0.521   0.053   0.367
    1UNL    H14   42   0.665   0.135   0.292
    1UNL    H15   43   0.599  -0.023   0.234
    1UNL    H16   44   0.400  -0.091   0.209
    1UNL    H17   45   0.191  -0.175   0.125
    1UNL    H18   46   0.233  -0.093  -0.206
    1UNL    H19   47   0.111  -0.087  -0.317
    1UNL    H20   48   0.162  -0.320  -0.151
    1UNL    H21   49   0.053  -0.310  -0.288
    1UNL    H22   50   0.069  -0.358   0.035
    1UNL    H23   51  -0.092  -0.432   0.019
    1UNL    H24   52  -0.123  -0.317   0.245
    1UNL    H25   53  -0.236  -0.098   0.231
    1UNL    H26   54  -0.137  -0.092  -0.179
   0.00000   0.00000   0.00000   0.00000   0.00000   0.00000   0.00000   0.00000   0.00000
Generated with MDTraj, t= 77.0
 54
    1UNL     C1    1  -0.352  -0.281  -0.028
    1UNL     C2    2  -0.324  -0.123  -0.042
    1UNL     C3    3  -0.188  -0.071   0.010
    1UNL     C4    4  -0.199   0.090   0.006
    1UNL     C5    5  -0.125   0.158  -0.107
    1UNL     C6    6  -0.170   0.292  -0.134
    1UNL     O1    7  -0.125   0.358  -0.225
    1UNL     O2    8  -0.264   0.341  -0.045
    1UNL     C7    9  -0.262   0.482  -0.060
    1UNL     C8   10  -0.001   0.110  -0.148
    1UNL     N1   11   0.120   0.189  -0.122
    1UNL     C9   12   0.203   0.127  -0.031
    1UNL    C10   13   0.306   0.176   0.045
    1UNL    C11   14   0.374   0.103   0.140
    1UNL     O3   15   0.474   0.163   0.220
    1UNL    C12   16   0.551   0.075   0.291
    1UNL    C13   17   0.339  -0.030   0.151
    1UNL    C14   18   0.226  -0.077   0.089
    1UNL    C15   19   0.152   0.000  -0.003
    1UNL    C16   20   0.044  -0.034  -0.111
    1UNL    C17   21   0.108  -0.127  -0.218
    1UNL    C18   22   0.067  -0.268  -0.183
    1UNL     N2   23  -0.051  -0.263  -0.090
    1UNL    C19   24  -0.044  -0.334   0.044
    1UNL    C20   25  -0.091  -0.255   0.165
    1UNL     O4   26  -0.017  -0.133   0.182
    1UNL    C21   27  -0.153  -0.113   0.156
    1UNL    C22   28  -0.082  -0.121  -0.090
    1UNL     H1   29  -0.450  -0.317  -0.057
    1UNL     H2   30  -0.283  -0.331  -0.094
    1UNL     H3   31  -0.341  -0.318   0.072
    1UNL     H4   32  -0.335  -0.093  -0.148
    1UNL     H5   33  -0.410  -0.065   0.013
    1UNL     H6   34  -0.302   0.127   0.009
    1UNL     H7   35  -0.154   0.129   0.106
    1UNL     H8   36  -0.337   0.508  -0.135
    1UNL     H9   37  -0.296   0.531   0.028
    1UNL    H10   38  -0.156   0.516  -0.074
    1UNL    H11   39   0.114   0.292  -0.127
    1UNL    H12   40   0.323   0.282   0.046
    1UNL    H13   41   0.499   0.012   0.367
    1UNL    H14   42   0.626   0.138   0.338
    1UNL    H15   43   0.606  -0.003   0.227
    1UNL    H16   44   0.389  -0.088   0.231
    1UNL    H17   45   0.195  -0.180   0.102
    1UNL    H18   46   0.217  -0.106  -0.231
    1UNL    H19   47   0.084  -0.118  -0.327
    1UNL    H20   48   0.156  -0.314  -0.142
    1UNL    H21   49   0.041  -0.325  -0.276
    1UNL    H22   50   0.064  -0.364   0.048
    1UNL    H23   51  -0.100  -0.430   0.025
    1UNL    H24   52  -0.094  -0.314   0.257
    1UNL    H25   53  -0.214  -0.078   0.240
    1UNL    H26   54  -0.136  -0.108  -0.180
   0.00000   0.00000   0.00000   0.00000   0.00000   0.00000   0.00000   0.00000   0.00000
Generated with MDTraj, t= 78.0
 54
    1UNL     C1    1  -0.331  -0.289  -0.031
    1UNL     C2    2  -0.326  -0.143  -0.023
    1UNL     C3    3  -0.192  -0.081   0.016
    1UNL     C4    4  -0.198   0.082   0.013
    1UNL     C5    5  -0.129   0.156  -0.099
    1UNL     C6    6  -0.149   0.301  -0.118
    1UNL     O1    7  -0.112   0.347  -0.225
    1UNL     O2    8  -0.210   0.377  -0.018
    1UNL     C7    9  -0.246   0.502  -0.080
    1UNL     C8   10  -0.006   0.108  -0.148
    1UNL     N1   11   0.107   0.185  -0.138
    1UNL     C9   12   0.190   0.126  -0.042
    1UNL    C10   13   0.291   0.182   0.036
    1UNL    C11   14   0.357   0.099   0.129
    1UNL     O3   15   0.457   0.155   0.208
    1UNL    C12   16   0.503   0.075   0.311
    1UNL    C13   17   0.308  -0.034   0.154
    1UNL    C14   18   0.202  -0.081   0.081
    1UNL    C15   19   0.141  -0.001  -0.020
    1UNL    C16   20   0.035  -0.033  -0.121
    1UNL    C17   21   0.093  -0.117  -0.241
    1UNL    C18   22   0.072  -0.262  -0.187
    1UNL     N2   23  -0.036  -0.255  -0.085
    1UNL    C19   24  -0.003  -0.329   0.051
    1UNL    C20   25  -0.066  -0.258   0.170
    1UNL     O4   26  -0.011  -0.135   0.198
    1UNL    C21   27  -0.148  -0.131   0.155
    1UNL    C22   28  -0.086  -0.115  -0.089
    1UNL     H1   29  -0.424  -0.329  -0.055
    1UNL     H2   30  -0.267  -0.323  -0.114
    1UNL     H3   31  -0.303  -0.342   0.068
    1UNL     H4   32  -0.362  -0.097  -0.116
    1UNL     H5   33  -0.399  -0.108   0.065
    1UNL     H6   34  -0.304   0.114   0.016
    1UNL     H7   35  -0.155   0.131   0.105
    1UNL     H8   36  -0.298   0.469  -0.172
    1UNL     H9   37  -0.327   0.552  -0.030
    1UNL    H10   38  -0.157   0.561  -0.116
    1UNL    H11   39   0.093   0.283  -0.142
    1UNL    H12   40   0.330   0.280   0.014
    1UNL    H13   41   0.431   0.045   0.387
    1UNL    H14   42   0.587   0.128   0.352
    1UNL    H15   43   0.549  -0.023   0.273
    1UNL    H16   44   0.345  -0.094   0.233
    1UNL    H17   45   0.159  -0.175   0.107
    1UNL    H18   46   0.190  -0.067  -0.268
    1UNL    H19   47   0.041  -0.100  -0.339
    1UNL    H20   48   0.160  -0.297  -0.138
    1UNL    H21   49   0.032  -0.338  -0.262
    1UNL    H22   50   0.106  -0.351   0.064
    1UNL    H23   51  -0.040  -0.433   0.031
    1UNL    H24   52  -0.070  -0.323   0.257
    1UNL    H25   53  -0.214  -0.102   0.238
    1UNL    H26   54  -0.142  -0.129  -0.175
   0.00000   0.00000   0.00000   0.00000   0.00000   0.00000   0.00000   0.00000   0.00000
Generated with MDTraj, t= 79.0
 54
    1UNL     C1    1  -0.349  -0.273  -0.028
    1UNL     C2    2  -0.338  -0.123  -0.012
    1UNL     C3    3  -0.191  -0.076   0.017
    1UNL     C4    4  -0.189   0.082   0.010
    1UNL     C5    5  -0.122   0.150  -0.111
    1UNL     C6    6  -0.155   0.297  -0.124
    1UNL     O1    7  -0.079   0.357  -0.197
    1UNL     O2    8  -0.258   0.349  -0.048
    1UNL     C7    9  -0.231   0.480  -0.030
    1UNL     C8   10  -0.000   0.105  -0.152
    1UNL     N1   11   0.116   0.182  -0.143
    1UNL     C9   12   0.203   0.120  -0.046
    1UNL    C10   13   0.305   0.177   0.027
    1UNL    C11   14   0.370   0.109   0.132
    1UNL     O3   15   0.458   0.187   0.204
    1UNL    C12   16   0.484   0.124   0.325
    1UNL    C13   17   0.335  -0.030   0.142
    1UNL    C14   18   0.226  -0.084   0.074
    1UNL    C15   19   0.152  -0.011  -0.017
    1UNL    C16   20   0.042  -0.041  -0.117
    1UNL    C17   21   0.107  -0.130  -0.223
    1UNL    C18   22   0.049  -0.270  -0.193
    1UNL     N2   23  -0.058  -0.262  -0.090
    1UNL    C19   24  -0.031  -0.338   0.041
    1UNL    C20   25  -0.081  -0.268   0.162
    1UNL     O4   26  -0.011  -0.147   0.178
    1UNL    C21   27  -0.147  -0.123   0.157
    1UNL    C22   28  -0.090  -0.120  -0.089
    1UNL     H1   29  -0.445  -0.309  -0.044
    1UNL     H2   30  -0.296  -0.299  -0.123
    1UNL     H3   31  -0.309  -0.332   0.062
    1UNL     H4   32  -0.373  -0.073  -0.105
    1UNL     H5   33  -0.403  -0.087   0.075
    1UNL     H6   34  -0.290   0.134   0.016
    1UNL     H7   35  -0.140   0.111   0.103
    1UNL     H8   36  -0.263   0.529  -0.124
    1UNL     H9   37  -0.304   0.508   0.045
    1UNL    H10   38  -0.119   0.501  -0.027
    1UNL    H11   39   0.107   0.285  -0.151
    1UNL    H12   40   0.343   0.273  -0.008
    1UNL    H13   41   0.396   0.094   0.378
    1UNL    H14   42   0.546   0.188   0.382
    1UNL    H15   43   0.555   0.036   0.312
    1UNL    H16   44   0.376  -0.089   0.222
    1UNL    H17   45   0.198  -0.188   0.086
    1UNL    H18   46   0.216  -0.123  -0.217
    1UNL    H19   47   0.086  -0.094  -0.329
    1UNL    H20   48   0.106  -0.340  -0.139
    1UNL    H21   49  -0.004  -0.321  -0.280
    1UNL    H22   50   0.079  -0.357   0.036
    1UNL    H23   51  -0.067  -0.444   0.026
    1UNL    H24   52  -0.096  -0.327   0.251
    1UNL    H25   53  -0.205  -0.090   0.247
    1UNL    H26   54  -0.140  -0.119  -0.183
   0.00000   0.00000   0.00000   0.00000   0.00000   0.00000   0.00000   0.00000   0.00000
Generated with MDTraj, t= 80.0
 54
    1UNL     C1    1  -0.367  -0.266  -0.016
    1UNL     C2    2  -0.336  -0.109  -0.029
    1UNL     C3    3  -0.190  -0.075   0.011
    1UNL     C4    4  -0.173   0.076   0.014
    1UNL     C5    5  -0.105   0.153  -0.092
    1UNL     C6    6  -0.134   0.296  -0.096
    1UNL     O1    7  -0.059   0.373  -0.151
    1UNL     O2    8  -0.258   0.330  -0.035
    1UNL     C7    9  -0.273   0.469  -0.044
    1UNL     C8   10   0.012   0.099  -0.153
    1UNL     N1   11   0.128   0.174  -0.164
    1UNL     C9   12   0.213   0.118  -0.060
    1UNL    C10   13   0.315   0.179   0.009
    1UNL    C11   14   0.364   0.112   0.123
    1UNL     O3   15   0.470   0.182   0.184
    1UNL    C12   16   0.482   0.157   0.327
    1UNL    C13   17   0.321  -0.017   0.159
    1UNL    C14   18   0.223  -0.079   0.082
    1UNL    C15   19   0.162  -0.010  -0.021
    1UNL    C16   20   0.048  -0.044  -0.118
    1UNL    C17   21   0.106  -0.141  -0.225
    1UNL    C18   22   0.043  -0.280  -0.202
    1UNL     N2   23  -0.066  -0.268  -0.092
    1UNL    C19   24  -0.033  -0.337   0.037
    1UNL    C20   25  -0.091  -0.271   0.155
    1UNL     O4   26  -0.028  -0.147   0.177
    1UNL    C21   27  -0.160  -0.132   0.155
    1UNL    C22   28  -0.088  -0.124  -0.091
    1UNL     H1   29  -0.464  -0.297  -0.062
    1UNL     H2   30  -0.294  -0.320  -0.079
    1UNL     H3   31  -0.368  -0.301   0.090
    1UNL     H4   32  -0.354  -0.071  -0.134
    1UNL     H5   33  -0.397  -0.054   0.038
    1UNL     H6   34  -0.277   0.123   0.030
    1UNL     H7   35  -0.121   0.104   0.103
    1UNL     H8   36  -0.210   0.508  -0.126
    1UNL     H9   37  -0.377   0.491  -0.054
    1UNL    H10   38  -0.220   0.512   0.045
    1UNL    H11   39   0.121   0.281  -0.163
    1UNL    H12   40   0.369   0.266  -0.020
    1UNL    H13   41   0.386   0.150   0.369
    1UNL    H14   42   0.545   0.231   0.369
    1UNL    H15   43   0.551   0.072   0.359
    1UNL    H16   44   0.369  -0.061   0.249
    1UNL    H17   45   0.179  -0.171   0.119
    1UNL    H18   46   0.211  -0.170  -0.224
    1UNL    H19   47   0.084  -0.102  -0.328
    1UNL    H20   48   0.102  -0.359  -0.164
    1UNL    H21   49  -0.016  -0.313  -0.293
    1UNL    H22   50   0.077  -0.351   0.039
    1UNL    H23   51  -0.069  -0.442   0.010
    1UNL    H24   52  -0.100  -0.343   0.237
    1UNL    H25   53  -0.223  -0.097   0.240
    1UNL    H26   54  -0.129  -0.103  -0.193
   0.00000   0.00000   0.00000   0.00000   0.00000   0.00000   0.00000   0.00000   0.00000
Generated with MDTraj, t= 81.0
 54
    1UNL     C1    1  -0.364  -0.260  -0.047
    1UNL     C2    2  -0.339  -0.117  -0.014
    1UNL     C3    3  -0.197  -0.079   0.027
    1UNL     C4    4  -0.176   0.082   0.036
    1UNL     C5    5  -0.111   0.155  -0.079
    1UNL     C6    6  -0.133   0.301  -0.091
    1UNL     O1    7  -0.049   0.377  -0.134
    1UNL     O2    8  -0.262   0.343  -0.053
    1UNL     C7    9  -0.267   0.480  -0.089
    1UNL     C8   10  -0.007   0.100  -0.143
    1UNL     N1   11   0.118   0.171  -0.159
    1UNL     C9   12   0.215   0.111  -0.067
    1UNL    C10   13   0.327   0.166  -0.005
    1UNL    C11   14   0.369   0.103   0.114
    1UNL     O3   15   0.479   0.163   0.171
    1UNL    C12   16   0.488   0.153   0.313
    1UNL    C13   17   0.301  -0.008   0.163
    1UNL    C14   18   0.198  -0.068   0.096
    1UNL    C15   19   0.156  -0.007  -0.019
    1UNL    C16   20   0.037  -0.040  -0.112
    1UNL    C17   21   0.098  -0.119  -0.236
    1UNL    C18   22   0.063  -0.266  -0.200
    1UNL     N2   23  -0.043  -0.268  -0.093
    1UNL    C19   24   0.003  -0.324   0.037
    1UNL    C20   25  -0.086  -0.287   0.148
    1UNL     O4   26  -0.038  -0.169   0.214
    1UNL    C21   27  -0.166  -0.156   0.161
    1UNL    C22   28  -0.096  -0.126  -0.085
    1UNL     H1   29  -0.474  -0.268  -0.091
    1UNL     H2   30  -0.305  -0.291  -0.136
    1UNL     H3   31  -0.357  -0.329   0.034
    1UNL     H4   32  -0.362  -0.049  -0.102
    1UNL     H5   33  -0.397  -0.085   0.063
    1UNL     H6   34  -0.281   0.125   0.051
    1UNL     H7   35  -0.126   0.102   0.127
    1UNL     H8   36  -0.223   0.492  -0.190
    1UNL     H9   37  -0.355   0.535  -0.065
    1UNL    H10   38  -0.188   0.522  -0.023
    1UNL    H11   39   0.117   0.278  -0.151
    1UNL    H12   40   0.376   0.257  -0.039
    1UNL    H13   41   0.388   0.159   0.346
    1UNL    H14   42   0.558   0.223   0.348
    1UNL    H15   43   0.538   0.058   0.349
    1UNL    H16   44   0.323  -0.047   0.257
    1UNL    H17   45   0.122  -0.122   0.148
    1UNL    H18   46   0.206  -0.122  -0.245
    1UNL    H19   47   0.048  -0.080  -0.331
    1UNL    H20   48   0.149  -0.319  -0.168
    1UNL    H21   49   0.016  -0.313  -0.293
    1UNL    H22   50   0.110  -0.293   0.042
    1UNL    H23   51   0.008  -0.436   0.021
    1UNL    H24   52  -0.104  -0.369   0.217
    1UNL    H25   53  -0.233  -0.153   0.250
    1UNL    H26   54  -0.149  -0.107  -0.185
   0.00000   0.00000   0.00000   0.00000   0.00000   0.00000   0.00000   0.00000   0.00000
Generated with MDTraj, t= 82.0
 54
    1UNL     C1    1  -0.346  -0.253  -0.077
    1UNL     C2    2  -0.334  -0.110  -0.030
    1UNL     C3    3  -0.197  -0.070   0.025
    1UNL     C4    4  -0.178   0.089   0.036
    1UNL     C5    5  -0.116   0.157  -0.081
    1UNL     C6    6  -0.150   0.301  -0.104
    1UNL     O1    7  -0.073   0.380  -0.156
    1UNL     O2    8  -0.269   0.339  -0.054
    1UNL     C7    9  -0.291   0.467  -0.088
    1UNL     C8   10   0.000   0.100  -0.139
    1UNL     N1   11   0.117   0.178  -0.144
    1UNL     C9   12   0.207   0.108  -0.057
    1UNL    C10   13   0.318   0.171   0.008
    1UNL    C11   14   0.378   0.112   0.118
    1UNL     O3   15   0.493   0.170   0.173
    1UNL    C12   16   0.521   0.138   0.303
    1UNL    C13   17   0.332  -0.014   0.162
    1UNL    C14   18   0.223  -0.070   0.103
    1UNL    C15   19   0.154  -0.012  -0.001
    1UNL    C16   20   0.046  -0.043  -0.098
    1UNL    C17   21   0.116  -0.133  -0.213
    1UNL    C18   22   0.039  -0.270  -0.196
    1UNL     N2   23  -0.060  -0.265  -0.091
    1UNL    C19   24  -0.022  -0.341   0.034
    1UNL    C20   25  -0.099  -0.287   0.161
    1UNL     O4   26  -0.032  -0.165   0.192
    1UNL    C21   27  -0.168  -0.141   0.165
    1UNL    C22   28  -0.091  -0.121  -0.081
    1UNL     H1   29  -0.450  -0.273  -0.126
    1UNL     H2   30  -0.277  -0.270  -0.164
    1UNL     H3   31  -0.333  -0.321   0.004
    1UNL     H4   32  -0.351  -0.041  -0.115
    1UNL     H5   33  -0.402  -0.084   0.043
    1UNL     H6   34  -0.277   0.141   0.052
    1UNL     H7   35  -0.122   0.106   0.124
    1UNL     H8   36  -0.300   0.480  -0.198
    1UNL     H9   37  -0.355   0.510  -0.015
    1UNL    H10   38  -0.195   0.514  -0.057
    1UNL    H11   39   0.103   0.275  -0.117
    1UNL    H12   40   0.346   0.267  -0.026
    1UNL    H13   41   0.426   0.154   0.349
    1UNL    H14   42   0.604   0.193   0.339
    1UNL    H15   43   0.556   0.029   0.309
    1UNL    H16   44   0.376  -0.056   0.255
    1UNL    H17   45   0.173  -0.155   0.148
    1UNL    H18   46   0.222  -0.135  -0.189
    1UNL    H19   47   0.102  -0.080  -0.312
    1UNL    H20   48   0.121  -0.336  -0.184
    1UNL    H21   49  -0.013  -0.291  -0.295
    1UNL    H22   50   0.089  -0.334   0.042
    1UNL    H23   51  -0.044  -0.449   0.003
    1UNL    H24   52  -0.122  -0.362   0.238
    1UNL    H25   53  -0.243  -0.124   0.242
    1UNL    H26   54  -0.155  -0.099  -0.177
   0.00000   0.00000   0.00000   0.00000   0.00000   0.00000   0.00000   0.00000   0.00000
Generated with MDTraj, t= 83.0
 54
    1UNL     C1    1  -0.369  -0.262  -0.049
    1UNL     C2    2  -0.342  -0.104  -0.034
    1UNL     C3    3  -0.200  -0.069   0.012
    1UNL     C4    4  -0.189   0.082   0.021
    1UNL     C5    5  -0.120   0.151  -0.098
    1UNL     C6    6  -0.158   0.294  -0.127
    1UNL     O1    7  -0.104   0.372  -0.205
    1UNL     O2    8  -0.265   0.327  -0.044
    1UNL     C7    9  -0.309   0.450  -0.078
    1UNL     C8   10   0.008   0.105  -0.133
    1UNL     N1   11   0.122   0.182  -0.118
    1UNL     C9   12   0.207   0.122  -0.032
    1UNL    C10   13   0.309   0.189   0.042
    1UNL    C11   14   0.386   0.111   0.132
    1UNL     O3   15   0.506   0.167   0.189
    1UNL    C12   16   0.562   0.096   0.294
    1UNL    C13   17   0.340  -0.018   0.165
    1UNL    C14   18   0.236  -0.080   0.097
    1UNL    C15   19   0.160  -0.009   0.000
    1UNL    C16   20   0.049  -0.041  -0.100
    1UNL    C17   21   0.116  -0.120  -0.222
    1UNL    C18   22   0.056  -0.265  -0.189
    1UNL     N2   23  -0.054  -0.257  -0.087
    1UNL    C19   24  -0.045  -0.341   0.035
    1UNL    C20   25  -0.093  -0.264   0.160
    1UNL     O4   26  -0.029  -0.137   0.177
    1UNL    C21   27  -0.170  -0.137   0.148
    1UNL    C22   28  -0.085  -0.115  -0.087
    1UNL     H1   29  -0.474  -0.298  -0.061
    1UNL     H2   30  -0.312  -0.298  -0.140
    1UNL     H3   31  -0.332  -0.311   0.045
    1UNL     H4   32  -0.356  -0.050  -0.121
    1UNL     H5   33  -0.410  -0.066   0.039
    1UNL     H6   34  -0.288   0.124   0.040
    1UNL     H7   35  -0.125   0.110   0.104
    1UNL     H8   36  -0.282   0.465  -0.186
    1UNL     H9   37  -0.412   0.468  -0.056
    1UNL    H10   38  -0.252   0.516  -0.011
    1UNL    H11   39   0.104   0.279  -0.118
    1UNL    H12   40   0.344   0.289   0.012
    1UNL    H13   41   0.478   0.060   0.354
    1UNL    H14   42   0.628   0.151   0.358
    1UNL    H15   43   0.623   0.012   0.243
    1UNL    H16   44   0.384  -0.067   0.248
    1UNL    H17   45   0.205  -0.176   0.137
    1UNL    H18   46   0.221  -0.091  -0.215
    1UNL    H19   47   0.080  -0.071  -0.316
    1UNL    H20   48   0.139  -0.323  -0.163
    1UNL    H21   49   0.019  -0.309  -0.288
    1UNL    H22   50   0.062  -0.370   0.048
    1UNL    H23   51  -0.107  -0.436   0.019
    1UNL    H24   52  -0.117  -0.319   0.252
    1UNL    H25   53  -0.224  -0.106   0.236
    1UNL    H26   54  -0.143  -0.089  -0.186
   0.00000   0.00000   0.00000   0.00000   0.00000   0.00000   0.00000   0.00000   0.00000
Generated with MDTraj, t= 84.0
 54
    1UNL     C1    1  -0.339  -0.277  -0.018
    1UNL     C2    2  -0.331  -0.129  -0.021
    1UNL     C3    3  -0.187  -0.071   0.021
    1UNL     C4    4  -0.195   0.091   0.016
    1UNL     C5    5  -0.131   0.167  -0.101
    1UNL     C6    6  -0.178   0.301  -0.136
    1UNL     O1    7  -0.116   0.360  -0.221
    1UNL     O2    8  -0.287   0.348  -0.068
    1UNL     C7    9  -0.297   0.483  -0.108
    1UNL     C8   10  -0.008   0.122  -0.140
    1UNL     N1   11   0.111   0.198  -0.116
    1UNL     C9   12   0.198   0.132  -0.022
    1UNL    C10   13   0.307   0.176   0.052
    1UNL    C11   14   0.367   0.090   0.144
    1UNL     O3   15   0.473   0.138   0.214
    1UNL    C12   16   0.562   0.036   0.256
    1UNL    C13   17   0.327  -0.040   0.152
    1UNL    C14   18   0.220  -0.087   0.078
    1UNL    C15   19   0.147   0.001   0.002
    1UNL    C16   20   0.039  -0.016  -0.107
    1UNL    C17   21   0.121  -0.095  -0.217
    1UNL    C18   22   0.094  -0.241  -0.186
    1UNL     N2   23  -0.025  -0.252  -0.092
    1UNL    C19   24  -0.017  -0.329   0.039
    1UNL    C20   25  -0.084  -0.265   0.167
    1UNL     O4   26  -0.020  -0.144   0.209
    1UNL    C21   27  -0.157  -0.133   0.163
    1UNL    C22   28  -0.079  -0.115  -0.084
    1UNL     H1   29  -0.428  -0.324  -0.056
    1UNL     H2   30  -0.254  -0.325  -0.079
    1UNL     H3   31  -0.333  -0.311   0.095
    1UNL     H4   32  -0.348  -0.103  -0.115
    1UNL     H5   33  -0.412  -0.080   0.032
    1UNL     H6   34  -0.295   0.123   0.019
    1UNL     H7   35  -0.146   0.124   0.108
    1UNL     H8   36  -0.339   0.477  -0.212
    1UNL     H9   37  -0.369   0.541  -0.052
    1UNL    H10   38  -0.197   0.533  -0.096
    1UNL    H11   39   0.099   0.300  -0.112
    1UNL    H12   40   0.355   0.270   0.041
    1UNL    H13   41   0.529  -0.007   0.353
    1UNL    H14   42   0.666   0.072   0.267
    1UNL    H15   43   0.562  -0.044   0.173
    1UNL    H16   44   0.355  -0.098   0.238
    1UNL    H17   45   0.194  -0.188   0.088
    1UNL    H18   46   0.227  -0.070  -0.221
    1UNL    H19   47   0.083  -0.087  -0.321
    1UNL    H20   48   0.180  -0.290  -0.147
    1UNL    H21   49   0.079  -0.304  -0.281
    1UNL    H22   50   0.090  -0.343   0.069
    1UNL    H23   51  -0.060  -0.433   0.028
    1UNL    H24   52  -0.120  -0.337   0.242
    1UNL    H25   53  -0.222  -0.098   0.242
    1UNL    H26   54  -0.148  -0.108  -0.175
   0.00000   0.00000   0.00000   0.00000   0.00000   0.00000   0.00000   0.00000   0.00000
Generated with MDTraj, t= 85.0
 54
    1UNL     C1    1  -0.322  -0.284  -0.032
    1UNL     C2    2  -0.324  -0.140  -0.018
    1UNL     C3    3  -0.188  -0.070   0.017
    1UNL     C4    4  -0.211   0.085   0.002
    1UNL     C5    5  -0.131   0.163  -0.101
    1UNL     C6    6  -0.172   0.299  -0.130
    1UNL     O1    7  -0.103   0.366  -0.205
    1UNL     O2    8  -0.290   0.351  -0.068
    1UNL     C7    9  -0.317   0.472  -0.130
    1UNL     C8   10   0.001   0.117  -0.134
    1UNL     N1   11   0.110   0.195  -0.098
    1UNL     C9   12   0.194   0.133   0.000
    1UNL    C10   13   0.297   0.179   0.068
    1UNL    C11   14   0.362   0.090   0.147
    1UNL     O3   15   0.478   0.131   0.210
    1UNL    C12   16   0.574   0.026   0.244
    1UNL    C13   17   0.325  -0.045   0.159
    1UNL    C14   18   0.228  -0.092   0.076
    1UNL    C15   19   0.153  -0.000   0.013
    1UNL    C16   20   0.041  -0.022  -0.101
    1UNL    C17   21   0.114  -0.101  -0.211
    1UNL    C18   22   0.071  -0.251  -0.191
    1UNL     N2   23  -0.051  -0.250  -0.091
    1UNL    C19   24  -0.028  -0.322   0.039
    1UNL    C20   25  -0.061  -0.244   0.173
    1UNL     O4   26  -0.007  -0.116   0.182
    1UNL    C21   27  -0.143  -0.111   0.160
    1UNL    C22   28  -0.082  -0.111  -0.088
    1UNL     H1   29  -0.411  -0.325  -0.079
    1UNL     H2   30  -0.236  -0.325  -0.096
    1UNL     H3   31  -0.319  -0.324   0.079
    1UNL     H4   32  -0.366  -0.100  -0.105
    1UNL     H5   33  -0.399  -0.116   0.055
    1UNL     H6   34  -0.313   0.100  -0.009
    1UNL     H7   35  -0.179   0.130   0.097
    1UNL     H8   36  -0.364   0.434  -0.225
    1UNL     H9   37  -0.402   0.525  -0.090
    1UNL    H10   38  -0.228   0.539  -0.136
    1UNL    H11   39   0.091   0.297  -0.104
    1UNL    H12   40   0.342   0.273   0.046
    1UNL    H13   41   0.551  -0.036   0.336
    1UNL    H14   42   0.674   0.064   0.263
    1UNL    H15   43   0.577  -0.043   0.154
    1UNL    H16   44   0.366  -0.112   0.238
    1UNL    H17   45   0.190  -0.193   0.080
    1UNL    H18   46   0.223  -0.090  -0.208
    1UNL    H19   47   0.080  -0.077  -0.313
    1UNL    H20   48   0.147  -0.312  -0.144
    1UNL    H21   49   0.043  -0.318  -0.278
    1UNL    H22   50   0.080  -0.351   0.049
    1UNL    H23   51  -0.089  -0.417   0.038
    1UNL    H24   52  -0.105  -0.302   0.257
    1UNL    H25   53  -0.200  -0.069   0.241
    1UNL    H26   54  -0.133  -0.100  -0.186
   0.00000   0.00000   0.00000   0.00000   0.00000   0.00000   0.00000   0.00000   0.00000
Generated with MDTraj, t= 86.0
 54
    1UNL     C1    1  -0.357  -0.278  -0.045
    1UNL     C2    2  -0.343  -0.121  -0.038
    1UNL     C3    3  -0.205  -0.071   0.015
    1UNL     C4    4  -0.217   0.085   0.003
    1UNL     C5    5  -0.126   0.154  -0.104
    1UNL     C6    6  -0.168   0.297  -0.129
    1UNL     O1    7  -0.081   0.378  -0.156
    1UNL     O2    8  -0.302   0.320  -0.106
    1UNL     C7    9  -0.325   0.453  -0.116
    1UNL     C8   10   0.004   0.119  -0.122
    1UNL     N1   11   0.120   0.195  -0.090
    1UNL     C9   12   0.206   0.124  -0.010
    1UNL    C10   13   0.321   0.167   0.057
    1UNL    C11   14   0.398   0.091   0.147
    1UNL     O3   15   0.504   0.155   0.209
    1UNL    C12   16   0.597   0.070   0.260
    1UNL    C13   17   0.359  -0.047   0.145
    1UNL    C14   18   0.250  -0.095   0.068
    1UNL    C15   19   0.160  -0.006   0.003
    1UNL    C16   20   0.047  -0.026  -0.099
    1UNL    C17   21   0.095  -0.110  -0.226
    1UNL    C18   22   0.058  -0.253  -0.188
    1UNL     N2   23  -0.057  -0.255  -0.085
    1UNL    C19   24  -0.023  -0.316   0.047
    1UNL    C20   25  -0.087  -0.248   0.168
    1UNL     O4   26  -0.038  -0.114   0.195
    1UNL    C21   27  -0.173  -0.126   0.153
    1UNL    C22   28  -0.092  -0.109  -0.079
    1UNL     H1   29  -0.463  -0.319  -0.065
    1UNL     H2   30  -0.295  -0.328  -0.127
    1UNL     H3   31  -0.330  -0.315   0.057
    1UNL     H4   32  -0.359  -0.080  -0.141
    1UNL     H5   33  -0.427  -0.083   0.013
    1UNL     H6   34  -0.317   0.108  -0.010
    1UNL     H7   35  -0.181   0.123   0.099
    1UNL     H8   36  -0.289   0.481  -0.219
    1UNL     H9   37  -0.430   0.471  -0.126
    1UNL    H10   38  -0.277   0.512  -0.038
    1UNL    H11   39   0.100   0.294  -0.061
    1UNL    H12   40   0.359   0.268   0.044
    1UNL    H13   41   0.562  -0.012   0.330
    1UNL    H14   42   0.652   0.127   0.333
    1UNL    H15   43   0.660   0.030   0.178
    1UNL    H16   44   0.408  -0.117   0.202
    1UNL    H17   45   0.220  -0.197   0.091
    1UNL    H18   46   0.205  -0.094  -0.234
    1UNL    H19   47   0.044  -0.084  -0.318
    1UNL    H20   48   0.134  -0.307  -0.132
    1UNL    H21   49   0.029  -0.322  -0.271
    1UNL    H22   50   0.088  -0.322   0.064
    1UNL    H23   51  -0.065  -0.421   0.051
    1UNL    H24   52  -0.126  -0.306   0.255
    1UNL    H25   53  -0.239  -0.081   0.229
    1UNL    H26   54  -0.130  -0.104  -0.180
   0.00000   0.00000   0.00000   0.00000   0.00000   0.00000   0.00000   0.00000   0.00000
Generated with MDTraj, t= 87.0
 54
    1UNL     C1    1  -0.345  -0.276  -0.050
    1UNL     C2    2  -0.335  -0.121  -0.045
    1UNL     C3    3  -0.199  -0.071   0.014
    1UNL     C4    4  -0.198   0.087   0.021
    1UNL     C5    5  -0.125   0.160  -0.091
    1UNL     C6    6  -0.157   0.303  -0.109
    1UNL     O1    7  -0.074   0.390  -0.106
    1UNL     O2    8  -0.292   0.332  -0.118
    1UNL     C7    9  -0.312   0.467  -0.140
    1UNL     C8   10   0.002   0.115  -0.133
    1UNL     N1   11   0.117   0.192  -0.115
    1UNL     C9   12   0.193   0.135  -0.014
    1UNL    C10   13   0.310   0.186   0.040
    1UNL    C11   14   0.390   0.101   0.117
    1UNL     O3   15   0.511   0.148   0.171
    1UNL    C12   16   0.575   0.076   0.265
    1UNL    C13   17   0.350  -0.037   0.133
    1UNL    C14   18   0.231  -0.080   0.082
    1UNL    C15   19   0.147   0.007   0.012
    1UNL    C16   20   0.046  -0.027  -0.100
    1UNL    C17   21   0.119  -0.122  -0.204
    1UNL    C18   22   0.065  -0.260  -0.169
    1UNL     N2   23  -0.052  -0.256  -0.081
    1UNL    C19   24  -0.028  -0.330   0.045
    1UNL    C20   25  -0.103  -0.277   0.171
    1UNL     O4   26  -0.047  -0.154   0.206
    1UNL    C21   27  -0.179  -0.143   0.154
    1UNL    C22   28  -0.090  -0.108  -0.081
    1UNL     H1   29  -0.455  -0.322  -0.074
    1UNL     H2   30  -0.280  -0.333  -0.124
    1UNL     H3   31  -0.330  -0.317   0.050
    1UNL     H4   32  -0.351  -0.072  -0.150
    1UNL     H5   33  -0.415  -0.077   0.007
    1UNL     H6   34  -0.294   0.131   0.016
    1UNL     H7   35  -0.150   0.112   0.115
    1UNL     H8   36  -0.229   0.511  -0.201
    1UNL     H9   37  -0.406   0.485  -0.188
    1UNL    H10   38  -0.302   0.523  -0.050
    1UNL    H11   39   0.088   0.287  -0.098
    1UNL    H12   40   0.330   0.288   0.022
    1UNL    H13   41   0.538   0.094   0.370
    1UNL    H14   42   0.666   0.128   0.283
    1UNL    H15   43   0.598  -0.027   0.240
    1UNL    H16   44   0.403  -0.104   0.205
    1UNL    H17   45   0.186  -0.169   0.119
    1UNL    H18   46   0.228  -0.108  -0.183
    1UNL    H19   47   0.089  -0.078  -0.297
    1UNL    H20   48   0.142  -0.322  -0.120
    1UNL    H21   49   0.021  -0.316  -0.253
    1UNL    H22   50   0.078  -0.327   0.075
    1UNL    H23   51  -0.064  -0.435   0.023
    1UNL    H24   52  -0.144  -0.351   0.245
    1UNL    H25   53  -0.261  -0.110   0.222
    1UNL    H26   54  -0.122  -0.104  -0.180
   0.00000   0.00000   0.00000   0.00000   0.00000   0.00000   0.00000   0.00000   0.00000
Generated with MDTraj, t= 88.0
 54
    1UNL     C1    1  -0.347  -0.272  -0.070
    1UNL     C2    2  -0.333  -0.131  -0.030
    1UNL     C3    3  -0.206  -0.076   0.024
    1UNL     C4    4  -0.210   0.083   0.027
    1UNL     C5    5  -0.127   0.165  -0.071
    1UNL     C6    6  -0.158   0.304  -0.099
    1UNL     O1    7  -0.069   0.384  -0.114
    1UNL     O2    8  -0.294   0.336  -0.108
    1UNL     C7    9  -0.300   0.467  -0.146
    1UNL     C8   10  -0.009   0.116  -0.126
    1UNL     N1   11   0.115   0.189  -0.125
    1UNL     C9   12   0.213   0.113  -0.049
    1UNL    C10   13   0.330   0.159   0.007
    1UNL    C11   14   0.390   0.092   0.114
    1UNL     O3   15   0.513   0.139   0.160
    1UNL    C12   16   0.563   0.083   0.278
    1UNL    C13   17   0.320  -0.016   0.174
    1UNL    C14   18   0.202  -0.056   0.115
    1UNL    C15   19   0.146   0.006   0.011
    1UNL    C16   20   0.037  -0.022  -0.095
    1UNL    C17   21   0.107  -0.103  -0.205
    1UNL    C18   22   0.075  -0.254  -0.175
    1UNL     N2   23  -0.049  -0.255  -0.084
    1UNL    C19   24  -0.023  -0.333   0.034
    1UNL    C20   25  -0.084  -0.279   0.165
    1UNL     O4   26  -0.031  -0.148   0.193
    1UNL    C21   27  -0.164  -0.146   0.158
    1UNL    C22   28  -0.097  -0.114  -0.081
    1UNL     H1   29  -0.451  -0.289  -0.116
    1UNL     H2   30  -0.273  -0.304  -0.153
    1UNL     H3   31  -0.343  -0.338   0.019
    1UNL     H4   32  -0.368  -0.060  -0.116
    1UNL     H5   33  -0.405  -0.119   0.045
    1UNL     H6   34  -0.314   0.110   0.010
    1UNL     H7   35  -0.178   0.118   0.121
    1UNL     H8   36  -0.255   0.493  -0.247
    1UNL     H9   37  -0.396   0.514  -0.129
    1UNL    H10   38  -0.225   0.518  -0.088
    1UNL    H11   39   0.114   0.286  -0.111
    1UNL    H12   40   0.381   0.246  -0.037
    1UNL    H13   41   0.497   0.104   0.365
    1UNL    H14   42   0.640   0.146   0.311
    1UNL    H15   43   0.601  -0.016   0.273
    1UNL    H16   44   0.356  -0.064   0.263
    1UNL    H17   45   0.139  -0.134   0.156
    1UNL    H18   46   0.216  -0.082  -0.200
    1UNL    H19   47   0.066  -0.064  -0.296
    1UNL    H20   48   0.159  -0.303  -0.120
    1UNL    H21   49   0.064  -0.315  -0.265
    1UNL    H22   50   0.087  -0.326   0.047
    1UNL    H23   51  -0.064  -0.439   0.021
    1UNL    H24   52  -0.100  -0.342   0.255
    1UNL    H25   53  -0.228  -0.124   0.249
    1UNL    H26   54  -0.130  -0.105  -0.180
   0.00000   0.00000   0.00000   0.00000   0.00000   0.00000   0.00000   0.00000   0.00000
Generated with MDTraj, t= 89.0
 54
    1UNL     C1    1  -0.345  -0.270  -0.050
    1UNL     C2    2  -0.339  -0.115  -0.038
    1UNL     C3    3  -0.200  -0.070   0.015
    1UNL     C4    4  -0.201   0.086   0.012
    1UNL     C5    5  -0.117   0.156  -0.093
    1UNL     C6    6  -0.152   0.296  -0.111
    1UNL     O1    7  -0.080   0.374  -0.167
    1UNL     O2    8  -0.281   0.328  -0.064
    1UNL     C7    9  -0.311   0.453  -0.108
    1UNL     C8   10   0.003   0.108  -0.130
    1UNL     N1   11   0.120   0.192  -0.121
    1UNL     C9   12   0.208   0.127  -0.028
    1UNL    C10   13   0.315   0.176   0.041
    1UNL    C11   14   0.388   0.093   0.130
    1UNL     O3   15   0.501   0.156   0.175
    1UNL    C12   16   0.560   0.096   0.291
    1UNL    C13   17   0.339  -0.033   0.154
    1UNL    C14   18   0.225  -0.081   0.091
    1UNL    C15   19   0.160  -0.003  -0.003
    1UNL    C16   20   0.055  -0.032  -0.108
    1UNL    C17   21   0.112  -0.130  -0.215
    1UNL    C18   22   0.044  -0.263  -0.198
    1UNL     N2   23  -0.062  -0.256  -0.092
    1UNL    C19   24  -0.023  -0.315   0.037
    1UNL    C20   25  -0.099  -0.262   0.161
    1UNL     O4   26  -0.040  -0.139   0.213
    1UNL    C21   27  -0.171  -0.125   0.161
    1UNL    C22   28  -0.087  -0.113  -0.081
    1UNL     H1   29  -0.441  -0.305  -0.080
    1UNL     H2   30  -0.269  -0.301  -0.131
    1UNL     H3   31  -0.323  -0.315   0.054
    1UNL     H4   32  -0.349  -0.078  -0.147
    1UNL     H5   33  -0.420  -0.072   0.020
    1UNL     H6   34  -0.307   0.116  -0.003
    1UNL     H7   35  -0.176   0.109   0.111
    1UNL     H8   36  -0.288   0.479  -0.217
    1UNL     H9   37  -0.410   0.481  -0.071
    1UNL    H10   38  -0.237   0.515  -0.061
    1UNL    H11   39   0.115   0.293  -0.118
    1UNL    H12   40   0.358   0.272   0.028
    1UNL    H13   41   0.485   0.067   0.368
    1UNL    H14   42   0.615   0.172   0.340
    1UNL    H15   43   0.621   0.011   0.277
    1UNL    H16   44   0.378  -0.096   0.232
    1UNL    H17   45   0.203  -0.184   0.114
    1UNL    H18   46   0.221  -0.158  -0.221
    1UNL    H19   47   0.085  -0.084  -0.307
    1UNL    H20   48   0.121  -0.344  -0.182
    1UNL    H21   49   0.006  -0.302  -0.294
    1UNL    H22   50   0.082  -0.294   0.061
    1UNL    H23   51  -0.048  -0.425   0.021
    1UNL    H24   52  -0.131  -0.338   0.234
    1UNL    H25   53  -0.261  -0.107   0.225
    1UNL    H26   54  -0.135  -0.075  -0.172
   0.00000   0.00000   0.00000   0.00000   0.00000   0.00000   0.00000   0.00000   0.00000
Generated with MDTraj, t= 90.0
 54
    1UNL     C1    1  -0.371  -0.255  -0.025
    1UNL     C2    2  -0.334  -0.105  -0.028
    1UNL     C3    3  -0.191  -0.068   0.016
    1UNL     C4    4  -0.192   0.087   0.016
    1UNL     C5    5  -0.126   0.153  -0.096
    1UNL     C6    6  -0.169   0.289  -0.129
    1UNL     O1    7  -0.112   0.349  -0.218
    1UNL     O2    8  -0.277   0.344  -0.055
    1UNL     C7    9  -0.275   0.478  -0.074
    1UNL     C8   10   0.005   0.110  -0.137
    1UNL     N1   11   0.114   0.193  -0.122
    1UNL     C9   12   0.203   0.131  -0.029
    1UNL    C10   13   0.303   0.183   0.048
    1UNL    C11   14   0.372   0.102   0.132
    1UNL     O3   15   0.469   0.165   0.215
    1UNL    C12   16   0.551   0.078   0.297
    1UNL    C13   17   0.341  -0.036   0.145
    1UNL    C14   18   0.235  -0.087   0.072
    1UNL    C15   19   0.160  -0.003  -0.008
    1UNL    C16   20   0.048  -0.032  -0.110
    1UNL    C17   21   0.116  -0.121  -0.217
    1UNL    C18   22   0.072  -0.271  -0.175
    1UNL     N2   23  -0.046  -0.263  -0.088
    1UNL    C19   24  -0.041  -0.344   0.035
    1UNL    C20   25  -0.078  -0.262   0.160
    1UNL     O4   26  -0.018  -0.135   0.173
    1UNL    C21   27  -0.156  -0.129   0.153
    1UNL    C22   28  -0.078  -0.119  -0.089
    1UNL     H1   29  -0.475  -0.275  -0.036
    1UNL     H2   30  -0.323  -0.314  -0.106
    1UNL     H3   31  -0.347  -0.308   0.077
    1UNL     H4   32  -0.350  -0.047  -0.124
    1UNL     H5   33  -0.393  -0.054   0.051
    1UNL     H6   34  -0.299   0.117   0.014
    1UNL     H7   35  -0.150   0.121   0.104
    1UNL     H8   36  -0.278   0.515  -0.181
    1UNL     H9   37  -0.353   0.527  -0.012
    1UNL    H10   38  -0.176   0.509  -0.043
    1UNL    H11   39   0.094   0.292  -0.134
    1UNL    H12   40   0.341   0.283   0.040
    1UNL    H13   41   0.490   0.028   0.379
    1UNL    H14   42   0.633   0.132   0.342
    1UNL    H15   43   0.578  -0.008   0.241
    1UNL    H16   44   0.392  -0.093   0.224
    1UNL    H17   45   0.209  -0.191   0.065
    1UNL    H18   46   0.224  -0.106  -0.206
    1UNL    H19   47   0.088  -0.095  -0.319
    1UNL    H20   48   0.158  -0.330  -0.131
    1UNL    H21   49   0.056  -0.332  -0.264
    1UNL    H22   50   0.063  -0.381   0.044
    1UNL    H23   51  -0.121  -0.426   0.034
    1UNL    H24   52  -0.075  -0.310   0.260
    1UNL    H25   53  -0.215  -0.098   0.240
    1UNL    H26   54  -0.138  -0.102  -0.184
   0.00000   0.00000   0.00000   0.00000   0.00000   0.00000   0.00000   0.00000   0.00000
Generated with MDTraj, t= 91.0
 54
    1UNL     C1    1  -0.324  -0.266  -0.016
    1UNL     C2    2  -0.321  -0.119   0.001
    1UNL     C3    3  -0.179  -0.069   0.024
    1UNL     C4    4  -0.188   0.094   0.018
    1UNL     C5    5  -0.119   0.159  -0.106
    1UNL     C6    6  -0.151   0.304  -0.132
    1UNL     O1    7  -0.115   0.358  -0.233
    1UNL     O2    8  -0.228   0.364  -0.038
    1UNL     C7    9  -0.272   0.490  -0.079
    1UNL     C8   10  -0.004   0.112  -0.158
    1UNL     N1   11   0.114   0.190  -0.141
    1UNL     C9   12   0.185   0.134  -0.036
    1UNL    C10   13   0.287   0.183   0.046
    1UNL    C11   14   0.348   0.102   0.144
    1UNL     O3   15   0.455   0.150   0.212
    1UNL    C12   16   0.524   0.064   0.293
    1UNL    C13   17   0.298  -0.028   0.157
    1UNL    C14   18   0.203  -0.081   0.079
    1UNL    C15   19   0.141  -0.002  -0.016
    1UNL    C16   20   0.037  -0.030  -0.120
    1UNL    C17   21   0.112  -0.117  -0.236
    1UNL    C18   22   0.080  -0.262  -0.184
    1UNL     N2   23  -0.029  -0.259  -0.084
    1UNL    C19   24  -0.027  -0.347   0.037
    1UNL    C20   25  -0.086  -0.276   0.168
    1UNL     O4   26  -0.004  -0.163   0.189
    1UNL    C21   27  -0.138  -0.124   0.163
    1UNL    C22   28  -0.088  -0.122  -0.089
    1UNL     H1   29  -0.429  -0.295  -0.041
    1UNL     H2   30  -0.259  -0.303  -0.093
    1UNL     H3   31  -0.302  -0.312   0.078
    1UNL     H4   32  -0.358  -0.072  -0.093
    1UNL     H5   33  -0.380  -0.081   0.092
    1UNL     H6   34  -0.294   0.127   0.015
    1UNL     H7   35  -0.141   0.136   0.100
    1UNL     H8   36  -0.335   0.483  -0.171
    1UNL     H9   37  -0.337   0.532   0.001
    1UNL    H10   38  -0.191   0.557  -0.098
    1UNL    H11   39   0.100   0.288  -0.152
    1UNL    H12   40   0.320   0.285   0.025
    1UNL    H13   41   0.450   0.009   0.362
    1UNL    H14   42   0.603   0.123   0.346
    1UNL    H15   43   0.551  -0.017   0.227
    1UNL    H16   44   0.340  -0.094   0.227
    1UNL    H17   45   0.160  -0.178   0.103
    1UNL    H18   46   0.214  -0.080  -0.245
    1UNL    H19   47   0.056  -0.109  -0.329
    1UNL    H20   48   0.177  -0.296  -0.133
    1UNL    H21   49   0.064  -0.335  -0.263
    1UNL    H22   50   0.078  -0.370   0.068
    1UNL    H23   51  -0.091  -0.436   0.008
    1UNL    H24   52  -0.074  -0.342   0.254
    1UNL    H25   53  -0.194  -0.083   0.246
    1UNL    H26   54  -0.165  -0.145  -0.172
   0.00000   0.00000   0.00000   0.00000   0.00000   0.00000   0.00000   0.00000   0.00000
Generated with MDTraj, t= 92.0
 54
    1UNL     C1    1  -0.346  -0.267  -0.031
    1UNL     C2    2  -0.338  -0.115  -0.021
    1UNL     C3    3  -0.193  -0.067   0.019
    1UNL     C4    4  -0.185   0.086   0.030
    1UNL     C5    5  -0.120   0.152  -0.092
    1UNL     C6    6  -0.150   0.286  -0.122
    1UNL     O1    7  -0.096   0.349  -0.209
    1UNL     O2    8  -0.251   0.343  -0.040
    1UNL     C7    9  -0.258   0.484  -0.063
    1UNL     C8   10   0.003   0.105  -0.144
    1UNL     N1   11   0.119   0.180  -0.139
    1UNL     C9   12   0.205   0.118  -0.048
    1UNL    C10   13   0.309   0.179   0.020
    1UNL    C11   14   0.360   0.112   0.137
    1UNL     O3   15   0.463   0.175   0.219
    1UNL    C12   16   0.521   0.096   0.315
    1UNL    C13   17   0.327  -0.021   0.155
    1UNL    C14   18   0.227  -0.083   0.080
    1UNL    C15   19   0.163  -0.010  -0.022
    1UNL    C16   20   0.042  -0.037  -0.118
    1UNL    C17   21   0.094  -0.124  -0.241
    1UNL    C18   22   0.045  -0.265  -0.207
    1UNL     N2   23  -0.050  -0.263  -0.089
    1UNL    C19   24  -0.015  -0.339   0.039
    1UNL    C20   25  -0.073  -0.262   0.161
    1UNL     O4   26  -0.030  -0.133   0.192
    1UNL    C21   27  -0.164  -0.134   0.158
    1UNL    C22   28  -0.085  -0.119  -0.087
    1UNL     H1   29  -0.440  -0.306  -0.082
    1UNL     H2   30  -0.266  -0.303  -0.091
    1UNL     H3   31  -0.338  -0.306   0.062
    1UNL     H4   32  -0.353  -0.071  -0.120
    1UNL     H5   33  -0.415  -0.079   0.059
    1UNL     H6   34  -0.282   0.137   0.047
    1UNL     H7   35  -0.120   0.107   0.112
    1UNL     H8   36  -0.328   0.491  -0.148
    1UNL     H9   37  -0.308   0.540   0.020
    1UNL    H10   38  -0.166   0.534  -0.078
    1UNL    H11   39   0.102   0.278  -0.139
    1UNL    H12   40   0.337   0.279  -0.001
    1UNL    H13   41   0.433   0.050   0.377
    1UNL    H14   42   0.589   0.151   0.384
    1UNL    H15   43   0.571   0.019   0.254
    1UNL    H16   44   0.381  -0.072   0.237
    1UNL    H17   45   0.186  -0.175   0.115
    1UNL    H18   46   0.202  -0.117  -0.233
    1UNL    H19   47   0.049  -0.101  -0.340
    1UNL    H20   48   0.134  -0.337  -0.187
    1UNL    H21   49  -0.009  -0.307  -0.289
    1UNL    H22   50   0.095  -0.352   0.045
    1UNL    H23   51  -0.066  -0.439   0.034
    1UNL    H24   52  -0.070  -0.313   0.257
    1UNL    H25   53  -0.231  -0.115   0.239
    1UNL    H26   54  -0.151  -0.115  -0.185
   0.00000   0.00000   0.00000   0.00000   0.00000   0.00000   0.00000   0.00000   0.00000
Generated with MDTraj, t= 93.0
 54
    1UNL     C1    1  -0.376  -0.258  -0.051
    1UNL     C2    2  -0.342  -0.113  -0.017
    1UNL     C3    3  -0.192  -0.075   0.009
    1UNL     C4    4  -0.194   0.079   0.013
    1UNL     C5    5  -0.120   0.148  -0.100
    1UNL     C6    6  -0.145   0.297  -0.105
    1UNL     O1    7  -0.067   0.373  -0.157
    1UNL     O2    8  -0.262   0.342  -0.049
    1UNL     C7    9  -0.274   0.480  -0.055
    1UNL     C8   10  -0.002   0.095  -0.148
    1UNL     N1   11   0.120   0.173  -0.140
    1UNL     C9   12   0.204   0.117  -0.037
    1UNL    C10   13   0.312   0.172   0.022
    1UNL    C11   14   0.383   0.104   0.116
    1UNL     O3   15   0.494   0.170   0.178
    1UNL    C12   16   0.503   0.152   0.317
    1UNL    C13   17   0.337  -0.019   0.154
    1UNL    C14   18   0.230  -0.081   0.095
    1UNL    C15   19   0.153  -0.012   0.003
    1UNL    C16   20   0.041  -0.047  -0.111
    1UNL    C17   21   0.120  -0.141  -0.211
    1UNL    C18   22   0.047  -0.276  -0.211
    1UNL     N2   23  -0.062  -0.271  -0.098
    1UNL    C19   24  -0.024  -0.334   0.036
    1UNL    C20   25  -0.091  -0.268   0.154
    1UNL     O4   26  -0.026  -0.143   0.191
    1UNL    C21   27  -0.156  -0.126   0.153
    1UNL    C22   28  -0.093  -0.126  -0.098
    1UNL     H1   29  -0.475  -0.286  -0.073
    1UNL     H2   30  -0.320  -0.292  -0.132
    1UNL     H3   31  -0.343  -0.319   0.030
    1UNL     H4   32  -0.381  -0.045  -0.092
    1UNL     H5   33  -0.393  -0.085   0.087
    1UNL     H6   34  -0.299   0.108   0.022
    1UNL     H7   35  -0.140   0.108   0.105
    1UNL     H8   36  -0.244   0.503  -0.158
    1UNL     H9   37  -0.383   0.502  -0.059
    1UNL    H10   38  -0.236   0.534   0.028
    1UNL    H11   39   0.119   0.274  -0.147
    1UNL    H12   40   0.353   0.265  -0.019
    1UNL    H13   41   0.402   0.180   0.364
    1UNL    H14   42   0.578   0.225   0.354
    1UNL    H15   43   0.548   0.054   0.340
    1UNL    H16   44   0.399  -0.067   0.225
    1UNL    H17   45   0.199  -0.175   0.137
    1UNL    H18   46   0.218  -0.162  -0.172
    1UNL    H19   47   0.117  -0.105  -0.316
    1UNL    H20   48   0.109  -0.373  -0.196
    1UNL    H21   49  -0.005  -0.295  -0.303
    1UNL    H22   50   0.086  -0.329   0.034
    1UNL    H23   51  -0.055  -0.442   0.028
    1UNL    H24   52  -0.086  -0.335   0.239
    1UNL    H25   53  -0.222  -0.098   0.235
    1UNL    H26   54  -0.139  -0.103  -0.204
   0.00000   0.00000   0.00000   0.00000   0.00000   0.00000   0.00000   0.00000   0.00000
Generated with MDTraj, t= 94.0
 54
    1UNL     C1    1  -0.344  -0.277  -0.053
    1UNL     C2    2  -0.328  -0.129  -0.031
    1UNL     C3    3  -0.191  -0.080   0.020
    1UNL     C4    4  -0.190   0.081   0.031
    1UNL     C5    5  -0.113   0.155  -0.075
    1UNL     C6    6  -0.146   0.302  -0.089
    1UNL     O1    7  -0.058   0.377  -0.123
    1UNL     O2    8  -0.274   0.351  -0.071
    1UNL     C7    9  -0.277   0.490  -0.080
    1UNL     C8   10  -0.000   0.108  -0.138
    1UNL     N1   11   0.123   0.178  -0.147
    1UNL     C9   12   0.219   0.108  -0.063
    1UNL    C10   13   0.336   0.159  -0.005
    1UNL    C11   14   0.385   0.096   0.108
    1UNL     O3   15   0.502   0.143   0.164
    1UNL    C12   16   0.495   0.170   0.310
    1UNL    C13   17   0.318  -0.018   0.160
    1UNL    C14   18   0.203  -0.067   0.102
    1UNL    C15   19   0.158  -0.007  -0.011
    1UNL    C16   20   0.043  -0.034  -0.108
    1UNL    C17   21   0.095  -0.113  -0.232
    1UNL    C18   22   0.067  -0.261  -0.197
    1UNL     N2   23  -0.045  -0.267  -0.097
    1UNL    C19   24  -0.044  -0.346   0.037
    1UNL    C20   25  -0.108  -0.275   0.162
    1UNL     O4   26  -0.039  -0.167   0.208
    1UNL    C21   27  -0.169  -0.133   0.160
    1UNL    C22   28  -0.086  -0.127  -0.081
    1UNL     H1   29  -0.421  -0.300  -0.109
    1UNL     H2   30  -0.260  -0.309  -0.104
    1UNL     H3   31  -0.346  -0.330   0.043
    1UNL     H4   32  -0.347  -0.087  -0.129
    1UNL     H5   33  -0.413  -0.087   0.039
    1UNL     H6   34  -0.290   0.120   0.035
    1UNL     H7   35  -0.139   0.095   0.132
    1UNL     H8   36  -0.241   0.512  -0.182
    1UNL     H9   37  -0.387   0.513  -0.083
    1UNL    H10   38  -0.239   0.536   0.007
    1UNL    H11   39   0.144   0.282  -0.136
    1UNL    H12   40   0.376   0.250  -0.040
    1UNL    H13   41   0.404   0.233   0.312
    1UNL    H14   42   0.580   0.234   0.341
    1UNL    H15   43   0.495   0.083   0.375
    1UNL    H16   44   0.341  -0.058   0.260
    1UNL    H17   45   0.151  -0.158   0.133
    1UNL    H18   46   0.200  -0.098  -0.251
    1UNL    H19   47   0.031  -0.081  -0.318
    1UNL    H20   48   0.150  -0.325  -0.151
    1UNL    H21   49   0.025  -0.323  -0.276
    1UNL    H22   50   0.064  -0.363   0.058
    1UNL    H23   51  -0.085  -0.443  -0.001
    1UNL    H24   52  -0.126  -0.349   0.238
    1UNL    H25   53  -0.251  -0.123   0.231
    1UNL    H26   54  -0.136  -0.111  -0.183
   0.00000   0.00000   0.00000   0.00000   0.00000   0.00000   0.00000   0.00000   0.00000
Generated with MDTraj, t= 95.0
 54
    1UNL     C1    1  -0.367  -0.269  -0.055
    1UNL     C2    2  -0.338  -0.117  -0.037
    1UNL     C3    3  -0.199  -0.074   0.015
    1UNL     C4    4  -0.191   0.082   0.031
    1UNL     C5    5  -0.116   0.154  -0.075
    1UNL     C6    6  -0.137   0.303  -0.093
    1UNL     O1    7  -0.051   0.382  -0.128
    1UNL     O2    8  -0.269   0.334  -0.065
    1UNL     C7    9  -0.298   0.473  -0.092
    1UNL     C8   10   0.002   0.106  -0.137
    1UNL     N1   11   0.123   0.174  -0.149
    1UNL     C9   12   0.203   0.116  -0.042
    1UNL    C10   13   0.317   0.172   0.018
    1UNL    C11   14   0.390   0.090   0.104
    1UNL     O3   15   0.507   0.147   0.166
    1UNL    C12   16   0.491   0.149   0.310
    1UNL    C13   17   0.340  -0.037   0.142
    1UNL    C14   18   0.216  -0.078   0.097
    1UNL    C15   19   0.144  -0.001   0.001
    1UNL    C16   20   0.039  -0.038  -0.101
    1UNL    C17   21   0.108  -0.120  -0.222
    1UNL    C18   22   0.062  -0.266  -0.196
    1UNL     N2   23  -0.051  -0.270  -0.099
    1UNL    C19   24  -0.018  -0.328   0.039
    1UNL    C20   25  -0.090  -0.267   0.162
    1UNL     O4   26  -0.037  -0.143   0.202
    1UNL    C21   27  -0.170  -0.136   0.153
    1UNL    C22   28  -0.088  -0.125  -0.086
    1UNL     H1   29  -0.469  -0.293  -0.072
    1UNL     H2   30  -0.316  -0.299  -0.138
    1UNL     H3   31  -0.330  -0.327   0.025
    1UNL     H4   32  -0.364  -0.054  -0.122
    1UNL     H5   33  -0.414  -0.088   0.046
    1UNL     H6   34  -0.288   0.125   0.037
    1UNL     H7   35  -0.127   0.116   0.123
    1UNL     H8   36  -0.320   0.478  -0.201
    1UNL     H9   37  -0.385   0.518  -0.032
    1UNL    H10   38  -0.209   0.525  -0.069
    1UNL    H11   39   0.105   0.276  -0.165
    1UNL    H12   40   0.351   0.273  -0.004
    1UNL    H13   41   0.397   0.201   0.322
    1UNL    H14   42   0.575   0.214   0.344
    1UNL    H15   43   0.506   0.056   0.359
    1UNL    H16   44   0.396  -0.099   0.210
    1UNL    H17   45   0.187  -0.177   0.124
    1UNL    H18   46   0.213  -0.102  -0.224
    1UNL    H19   47   0.073  -0.057  -0.307
    1UNL    H20   48   0.140  -0.341  -0.158
    1UNL    H21   49   0.025  -0.319  -0.283
    1UNL    H22   50   0.093  -0.329   0.028
    1UNL    H23   51  -0.048  -0.435   0.035
    1UNL    H24   52  -0.088  -0.322   0.257
    1UNL    H25   53  -0.252  -0.130   0.228
    1UNL    H26   54  -0.136  -0.108  -0.184
   0.00000   0.00000   0.00000   0.00000   0.00000   0.00000   0.00000   0.00000   0.00000
Generated with MDTraj, t= 96.0
 54
    1UNL     C1    1  -0.358  -0.266  -0.049
    1UNL     C2    2  -0.335  -0.114  -0.033
    1UNL     C3    3  -0.190  -0.070   0.014
    1UNL     C4    4  -0.195   0.088   0.022
    1UNL     C5    5  -0.120   0.159  -0.093
    1UNL     C6    6  -0.160   0.297  -0.122
    1UNL     O1    7  -0.096   0.368  -0.193
    1UNL     O2    8  -0.275   0.339  -0.063
    1UNL     C7    9  -0.303   0.477  -0.072
    1UNL     C8   10  -0.001   0.109  -0.134
    1UNL     N1   11   0.120   0.181  -0.121
    1UNL     C9   12   0.209   0.116  -0.036
    1UNL    C10   13   0.318   0.173   0.032
    1UNL    C11   14   0.395   0.101   0.126
    1UNL     O3   15   0.496   0.161   0.197
    1UNL    C12   16   0.529   0.108   0.325
    1UNL    C13   17   0.344  -0.033   0.154
    1UNL    C14   18   0.231  -0.087   0.089
    1UNL    C15   19   0.160  -0.017  -0.008
    1UNL    C16   20   0.049  -0.038  -0.106
    1UNL    C17   21   0.095  -0.132  -0.230
    1UNL    C18   22   0.035  -0.269  -0.201
    1UNL     N2   23  -0.065  -0.265  -0.088
    1UNL    C19   24  -0.024  -0.329   0.040
    1UNL    C20   25  -0.084  -0.261   0.160
    1UNL     O4   26  -0.012  -0.139   0.182
    1UNL    C21   27  -0.148  -0.123   0.158
    1UNL    C22   28  -0.090  -0.114  -0.086
    1UNL     H1   29  -0.460  -0.294  -0.078
    1UNL     H2   30  -0.299  -0.300  -0.128
    1UNL     H3   31  -0.336  -0.320   0.031
    1UNL     H4   32  -0.364  -0.060  -0.124
    1UNL     H5   33  -0.405  -0.065   0.043
    1UNL     H6   34  -0.293   0.131   0.023
    1UNL     H7   35  -0.141   0.117   0.120
    1UNL     H8   36  -0.284   0.508  -0.176
    1UNL     H9   37  -0.412   0.495  -0.040
    1UNL    H10   38  -0.232   0.519  -0.005
    1UNL    H11   39   0.113   0.281  -0.114
    1UNL    H12   40   0.336   0.279   0.016
    1UNL    H13   41   0.441   0.105   0.387
    1UNL    H14   42   0.608   0.179   0.354
    1UNL    H15   43   0.583   0.020   0.312
    1UNL    H16   44   0.396  -0.096   0.221
    1UNL    H17   45   0.203  -0.187   0.117
    1UNL    H18   46   0.200  -0.128  -0.238
    1UNL    H19   47   0.066  -0.076  -0.323
    1UNL    H20   48   0.121  -0.334  -0.167
    1UNL    H21   49   0.005  -0.327  -0.288
    1UNL    H22   50   0.087  -0.328   0.051
    1UNL    H23   51  -0.057  -0.434   0.014
    1UNL    H24   52  -0.066  -0.330   0.245
    1UNL    H25   53  -0.212  -0.093   0.245
    1UNL    H26   54  -0.149  -0.100  -0.173
   0.00000   0.00000   0.00000   0.00000   0.00000   0.00000   0.00000   0.00000   0.00000
Generated with MDTraj, t= 97.0
 54
    1UNL     C1    1  -0.340  -0.271  -0.010
    1UNL     C2    2  -0.318  -0.121  -0.012
    1UNL     C3    3  -0.183  -0.064   0.026
    1UNL     C4    4  -0.180   0.086   0.029
    1UNL     C5    5  -0.124   0.161  -0.098
    1UNL     C6    6  -0.163   0.291  -0.132
    1UNL     O1    7  -0.111   0.342  -0.225
    1UNL     O2    8  -0.260   0.351  -0.054
    1UNL     C7    9  -0.296   0.477  -0.096
    1UNL     C8   10  -0.000   0.118  -0.150
    1UNL     N1   11   0.112   0.202  -0.121
    1UNL     C9   12   0.198   0.133  -0.029
    1UNL    C10   13   0.309   0.178   0.036
    1UNL    C11   14   0.361   0.096   0.137
    1UNL     O3   15   0.457   0.147   0.229
    1UNL    C12   16   0.543   0.045   0.289
    1UNL    C13   17   0.319  -0.039   0.152
    1UNL    C14   18   0.209  -0.079   0.076
    1UNL    C15   19   0.149   0.004  -0.012
    1UNL    C16   20   0.039  -0.022  -0.118
    1UNL    C17   21   0.108  -0.113  -0.223
    1UNL    C18   22   0.066  -0.256  -0.190
    1UNL     N2   23  -0.045  -0.249  -0.092
    1UNL    C19   24  -0.025  -0.333   0.033
    1UNL    C20   25  -0.078  -0.263   0.163
    1UNL     O4   26  -0.005  -0.153   0.195
    1UNL    C21   27  -0.139  -0.115   0.161
    1UNL    C22   28  -0.084  -0.104  -0.095
    1UNL     H1   29  -0.440  -0.293  -0.042
    1UNL     H2   30  -0.275  -0.304  -0.089
    1UNL     H3   31  -0.315  -0.322   0.081
    1UNL     H4   32  -0.351  -0.079  -0.112
    1UNL     H5   33  -0.397  -0.077   0.054
    1UNL     H6   34  -0.282   0.121   0.041
    1UNL     H7   35  -0.120   0.120   0.121
    1UNL     H8   36  -0.270   0.484  -0.202
    1UNL     H9   37  -0.410   0.492  -0.080
    1UNL    H10   38  -0.225   0.536  -0.045
    1UNL    H11   39   0.093   0.303  -0.117
    1UNL    H12   40   0.335   0.281   0.031
    1UNL    H13   41   0.497  -0.010   0.367
    1UNL    H14   42   0.634   0.105   0.312
    1UNL    H15   43   0.578  -0.013   0.208
    1UNL    H16   44   0.357  -0.112   0.226
    1UNL    H17   45   0.163  -0.178   0.088
    1UNL    H18   46   0.211  -0.106  -0.196
    1UNL    H19   47   0.103  -0.088  -0.331
    1UNL    H20   48   0.158  -0.315  -0.167
    1UNL    H21   49   0.029  -0.307  -0.279
    1UNL    H22   50   0.085  -0.348   0.025
    1UNL    H23   51  -0.076  -0.432   0.018
    1UNL    H24   52  -0.087  -0.333   0.250
    1UNL    H25   53  -0.195  -0.095   0.255
    1UNL    H26   54  -0.143  -0.096  -0.180
   0.00000   0.00000   0.00000   0.00000   0.00000   0.00000   0.00000   0.00000   0.00000
Generated with MDTraj, t= 98.0
 54
    1UNL     C1    1  -0.355  -0.263  -0.007
    1UNL     C2    2  -0.331  -0.113  -0.013
    1UNL     C3    3  -0.188  -0.069   0.013
    1UNL     C4    4  -0.180   0.092   0.026
    1UNL     C5    5  -0.124   0.158  -0.101
    1UNL     C6    6  -0.165   0.291  -0.137
    1UNL     O1    7  -0.101   0.351  -0.219
    1UNL     O2    8  -0.271   0.345  -0.070
    1UNL     C7    9  -0.304   0.478  -0.105
    1UNL     C8   10   0.001   0.121  -0.146
    1UNL     N1   11   0.115   0.203  -0.108
    1UNL     C9   12   0.190   0.132  -0.012
    1UNL    C10   13   0.293   0.174   0.066
    1UNL    C11   14   0.356   0.088   0.154
    1UNL     O3   15   0.463   0.143   0.222
    1UNL    C12   16   0.564   0.052   0.261
    1UNL    C13   17   0.318  -0.043   0.157
    1UNL    C14   18   0.217  -0.091   0.073
    1UNL    C15   19   0.151  -0.001  -0.008
    1UNL    C16   20   0.045  -0.026  -0.115
    1UNL    C17   21   0.112  -0.104  -0.231
    1UNL    C18   22   0.076  -0.255  -0.186
    1UNL     N2   23  -0.037  -0.253  -0.093
    1UNL    C19   24  -0.021  -0.333   0.036
    1UNL    C20   25  -0.074  -0.261   0.161
    1UNL     O4   26  -0.008  -0.135   0.193
    1UNL    C21   27  -0.141  -0.127   0.158
    1UNL    C22   28  -0.089  -0.117  -0.093
    1UNL     H1   29  -0.455  -0.286  -0.022
    1UNL     H2   30  -0.295  -0.314  -0.082
    1UNL     H3   31  -0.323  -0.306   0.096
    1UNL     H4   32  -0.386  -0.073  -0.107
    1UNL     H5   33  -0.387  -0.057   0.065
    1UNL     H6   34  -0.283   0.127   0.053
    1UNL     H7   35  -0.117   0.114   0.116
    1UNL     H8   36  -0.382   0.469  -0.181
    1UNL     H9   37  -0.342   0.536  -0.015
    1UNL    H10   38  -0.219   0.510  -0.156
    1UNL    H11   39   0.094   0.304  -0.112
    1UNL    H12   40   0.347   0.269   0.054
    1UNL    H13   41   0.533   0.001   0.351
    1UNL    H14   42   0.653   0.123   0.268
    1UNL    H15   43   0.587  -0.017   0.181
    1UNL    H16   44   0.377  -0.117   0.203
    1UNL    H17   45   0.185  -0.192   0.085
    1UNL    H18   46   0.217  -0.088  -0.249
    1UNL    H19   47   0.059  -0.096  -0.325
    1UNL    H20   48   0.165  -0.293  -0.135
    1UNL    H21   49   0.052  -0.325  -0.269
    1UNL    H22   50   0.086  -0.363   0.047
    1UNL    H23   51  -0.084  -0.421   0.003
    1UNL    H24   52  -0.066  -0.324   0.252
    1UNL    H25   53  -0.206  -0.089   0.239
    1UNL    H26   54  -0.153  -0.104  -0.177
   0.00000   0.00000   0.00000   0.00000   0.00000   0.00000   0.00000   0.00000   0.00000
Generated with MDTraj, t= 99.0
 54
    1UNL     C1    1  -0.345  -0.281  -0.045
    1UNL     C2    2  -0.336  -0.125  -0.031
    1UNL     C3    3  -0.195  -0.065   0.013
    1UNL     C4    4  -0.202   0.090   0.004
    1UNL     C5    5  -0.117   0.162  -0.089
    1UNL     C6    6  -0.163   0.300  -0.130
    1UNL     O1    7  -0.091   0.381  -0.185
    1UNL     O2    8  -0.293   0.335  -0.089
    1UNL     C7    9  -0.327   0.474  -0.100
    1UNL     C8   10   0.009   0.115  -0.125
    1UNL     N1   11   0.129   0.190  -0.108
    1UNL     C9   12   0.205   0.131  -0.015
    1UNL    C10   13   0.310   0.180   0.063
    1UNL    C11   14   0.383   0.100   0.148
    1UNL     O3   15   0.493   0.159   0.211
    1UNL    C12   16   0.593   0.068   0.266
    1UNL    C13   17   0.345  -0.039   0.155
    1UNL    C14   18   0.243  -0.090   0.079
    1UNL    C15   19   0.168  -0.007  -0.006
    1UNL    C16   20   0.045  -0.033  -0.100
    1UNL    C17   21   0.106  -0.123  -0.216
    1UNL    C18   22   0.041  -0.270  -0.189
    1UNL     N2   23  -0.066  -0.264  -0.087
    1UNL    C19   24  -0.037  -0.333   0.046
    1UNL    C20   25  -0.092  -0.255   0.165
    1UNL     O4   26  -0.026  -0.133   0.184
    1UNL    C21   27  -0.165  -0.113   0.155
    1UNL    C22   28  -0.087  -0.118  -0.086
    1UNL     H1   29  -0.436  -0.315  -0.092
    1UNL     H2   30  -0.264  -0.314  -0.113
    1UNL     H3   31  -0.329  -0.343   0.048
    1UNL     H4   32  -0.368  -0.064  -0.127
    1UNL     H5   33  -0.420  -0.094   0.034
    1UNL     H6   34  -0.311   0.116  -0.021
    1UNL     H7   35  -0.186   0.122   0.109
    1UNL     H8   36  -0.429   0.469  -0.139
    1UNL     H9   37  -0.325   0.531  -0.002
    1UNL    H10   38  -0.273   0.512  -0.179
    1UNL    H11   39   0.126   0.292  -0.105
    1UNL    H12   40   0.344   0.277   0.040
    1UNL    H13   41   0.528  -0.004   0.309
    1UNL    H14   42   0.667   0.115   0.341
    1UNL    H15   43   0.638   0.013   0.182
    1UNL    H16   44   0.401  -0.107   0.218
    1UNL    H17   45   0.210  -0.190   0.090
    1UNL    H18   46   0.215  -0.131  -0.205
    1UNL    H19   47   0.072  -0.093  -0.314
    1UNL    H20   48   0.113  -0.345  -0.157
    1UNL    H21   49  -0.011  -0.292  -0.287
    1UNL    H22   50   0.074  -0.336   0.048
    1UNL    H23   51  -0.083  -0.436   0.043
    1UNL    H24   52  -0.104  -0.305   0.262
    1UNL    H25   53  -0.225  -0.071   0.237
    1UNL    H26   54  -0.141  -0.104  -0.181
   0.00000   0.00000   0.00000   0.00000   0.00000   0.00000   0.00000   0.00000   0.00000
