1TPCN00380
13
    1res  C1    1   -0.392  -0.094   0.093
    1res  C2    2   -0.146  -0.066   0.098
    1res  C3    3   -0.196   0.107  -0.067
    1res  C4    4   -0.170   0.484   0.065
    1res  C5    5    0.012   0.074   0.090
    1res  C6    6    0.103   0.266   0.005
    1res  C7    7    0.156   0.051  -0.029
    1res  C8    8    0.314   0.132  -0.163
    1res  C9    9    0.528  -0.050  -0.338
    1res  C10   10    0.269  -0.161  -0.100
    1res  C11   11    0.104  -0.114   0.264
    1res  C12   12   -0.055  -0.332   0.106
    1res  C13   13   -0.090  -0.244  -0.140
  10.00000  10.00000  10.00000
