1TPCN05732
15
    1res  C1    1    0.649  -0.095  -0.117
    1res  C2    2    0.726   0.108   0.068
    1res  C3    3    0.458   0.169   0.181
    1res  C4    4    0.349  -0.036   0.100
    1res  C5    5    0.455  -0.235   0.147
    1res  C6    6    0.286  -0.195  -0.128
    1res  C7    7    0.202   0.058  -0.073
    1res  C8    8    0.032   0.181   0.092
    1res  C9    9   -0.118  -0.037   0.186
    1res  C10   10   -0.347  -0.054  -0.151
    1res  C11   11   -0.479   0.193   0.133
    1res  C12   12   -0.553   0.240  -0.159
    1res  C13   13   -0.535  -0.084   0.051
    1res  C14   14   -0.166  -0.261  -0.045
    1res  C15   15   -0.037  -0.016  -0.200
  10.00000  10.00000  10.00000
