[ moleculetype ]
; name        nrexcl
res           1

[ atoms ]
;    nr  type resnr resid  atom  cgnr     charge       mass
      1 TC4       1 res   C1        1      0.000     36.000
      2 TN6a      1 res   C2        2      0.000     36.000
      3 SN6a      1 res   C3        3      0.000     54.000
      4 TC5       1 res   C4        4      0.000     36.000
      5 TN4a      1 res   C5        5      0.000     36.000
      6 TC3       1 res   C6        6      0.000     36.000
      7 SC4       1 res   C7        7      0.000     54.000
      8 TC3       1 res   C8        8      0.000     36.000
      9 TC4       1 res   C9        9      0.000     36.000
     10 SC4       1 res   C10      10      0.000     54.000
     11 SC4       1 res   C11      11      0.000     54.000
     12 SP2       1 res   C12      12      0.000     54.000
     13 TC3       1 res   C13      13      0.000     36.000
     14 TC3       1 res   C14      14      0.000     36.000
     15 TC4       1 res   C15      15      0.000     36.000

[ bonds ]
;  ai    aj   funct      b0(nm)        k
    1     2     1      0.28474    20000
    1     4     1      0.37486    20000
    2     3     1      0.29717    20000
    3     4     1      0.24594    20000
    4     5     1      0.23075    20000
    4     6     1      0.28524    20000
    4     7     1      0.24563    20000
    6     7     1      0.27227    20000
    7     8     1      0.26705    20000
    7    15     1      0.27994    20000
    8     9     1      0.28120    20000
    9    10     1      0.40708    20000
    9    15     1      0.39467    20000
   10    11     1      0.39814    20000
   10    13     1      0.27701    20000
   10    14     1      0.29491    20000
   11    12     1      0.30492    20000
   11    13     1      0.29440    20000
   14    15     1      0.31728    20000
