[ moleculetype ]
; name        nrexcl
res           1

[ atoms ]
;    nr  type  resnr resid  atom  cgnr     charge       mass
      1 TN6a      1 res   C1        1      0.000     36.000
      2 TN6d      1 res   C2        2      0.000     36.000
      3 SC4       1 res   C3        3      0.000     54.000
      4 TN6a      1 res   C4        4      0.000     36.000

[ constraints ]
;  ai    aj   funct      b0(nm)
    1     2     1      0.19124
    2     3     1      0.24681
    1     4     1      0.27576
    3     4     1      0.34611

[ bonds ]
;  ai    aj   funct      b0(nm)          k(kJ/mol/nm^2)

[ angles ]
;  ai    aj    ak  funct     th0(deg)        k(kJ/mol/rad^2)
    1     2     3     1    126.79848          1124.38
    1     4     3     1     77.32221          4986.99
    2     1     4     1     89.23038          1933.28
    2     3     4     1     65.97375          3494.03

[ dihedrals ]
;  ai    aj    ak    al  funct   phi0(deg)        k(kJ/mol)   mult
    1     2     3     4     1   -179.35149       14.254      1
    1     4     3     2     1   -179.85151        9.248      1
    2     1     4     3     1   -179.34234       10.008      1
    3     2     1     4     1   -179.89805       15.000      1
