1TPCN05110
23
    1res  C1    1   -0.930   0.270   0.003
    1res  C2    2   -0.910  -0.001   0.118
    1res  C3    3   -0.685   0.133   0.025
    1res  C4    4   -0.587   0.056   0.325
    1res  C5    5   -0.604  -0.229   0.058
    1res  C6    6   -0.502  -0.073  -0.166
    1res  C7    7   -0.328   0.183   0.069
    1res  C8    8   -0.241  -0.171  -0.028
    1res  C9    9   -0.001   0.070   0.047
    1res  C10   10    0.068  -0.176   0.140
    1res  C11   11    0.279  -0.080   0.025
    1res  C12   12    0.506  -0.269   0.100
    1res  C13   13    0.495  -0.409  -0.156
    1res  C14   14    0.783  -0.328   0.057
    1res  C15   15    0.737  -0.095   0.102
    1res  C16   16    0.832   0.185  -0.037
    1res  C17   17    0.888   0.414   0.056
    1res  C18   18    1.058   0.276   0.136
    1res  C19   19    0.989   0.069   0.166
    1res  C20   20    0.581  -0.042  -0.062
    1res  C21   21    0.202  -0.087  -0.235
    1res  C22   22    0.225   0.164  -0.131
    1res  C23   23   -0.162   0.038  -0.233
  10.00000  10.00000  10.00000
