[ moleculetype ]
; name        nrexcl
res           1

[ atoms ]
;    nr  type resnr resid  atom  cgnr     charge       mass
      1 SC4       1 res   C1        1      0.000     54.000
      2 TC3       1 res   C2        2      0.000     36.000
      3 SC3       1 res   C3        3      0.000     54.000
      4 SN4a      1 res   C4        4      0.000     54.000
      5 SN4a      1 res   C5        5      0.000     54.000
      6 TP1       1 res   C6        6      0.000     36.000
      7 TN6       1 res   C7        7      0.000     36.000
      8 TN6       1 res   C8        8      0.000     36.000
      9 TN6       1 res   C9        9      0.000     36.000
     10 SN4a      1 res   C10      10      0.000     54.000
     11 TN6       1 res   C11      11      0.000     36.000
     12 TN6       1 res   C12      12      0.000     36.000
     13 TN6       1 res   C13      13      0.000     36.000
     14 TC3       1 res   C14      14      0.000     36.000
     15 SC4       1 res   C15      15      0.000     54.000
     16 TC3       1 res   C16      16      0.000     36.000
     17 SC4       1 res   C17      17      0.000     54.000
     18 SC4       1 res   C18      18      0.000     54.000
     19 TC3       1 res   C19      19      0.000     36.000
     20 TN6       1 res   C20      20      0.000     36.000
     21 SN4a      1 res   C21      21      0.000     54.000
     22 TP1       1 res   C22      22      0.000     36.000
     23 TN6       1 res   C23      23      0.000     36.000
     24 TN6       1 res   C24      24      0.000     36.000
     25 TN6       1 res   C25      25      0.000     36.000
     26 SC4       1 res   C26      26      0.000     54.000
     27 TC3       1 res   C27      27      0.000     36.000

[ bonds ]
;  ai    aj   funct      b0(nm)        k
    1     2     1      0.27709    20000
    2     3     1      0.18851    20000
    3     4     1      0.23972    20000
    3    14     1      0.26134    20000
    3    15     1      0.33782    20000
    4     5     1      0.34013    20000
    5     6     1      0.28721    20000
    5     7     1      0.25639    20000
    5     9     1      0.27209    20000
    7     8     1      0.22556    20000
    8     9     1      0.23529    20000
    9    10     1      0.30477    20000
   10    11     1      0.28664    20000
   10    13     1      0.29979    20000
   11    12     1      0.25835    20000
   12    13     1      0.24772    20000
   14    15     1      0.25543    20000
   15    16     1      0.27230    20000
   15    17     1      0.26443    20000
   16    17     1      0.32773    20000
   17    18     1      0.26121    20000
   17    27     1      0.27013    20000
   18    19     1      0.28792    20000
   18    26     1      0.34329    20000
   18    27     1      0.36994    20000
   19    20     1      0.24954    20000
   20    21     1      0.29492    20000
   20    26     1      0.24489    20000
   21    22     1      0.31889    20000
   21    23     1      0.25825    20000
   21    25     1      0.28461    20000
   23    24     1      0.28076    20000
   24    25     1      0.22045    20000
