1TPCN05337
27
    1res  C1    1    0.019  -0.285  -0.315
    1res  C2    2    0.206  -0.081  -0.298
    1res  C3    3    0.278  -0.009  -0.140
    1res  C4    4    0.489  -0.094  -0.063
    1res  C5    5    0.701  -0.219   0.172
    1res  C6    6    0.804  -0.104   0.414
    1res  C7    7    0.955  -0.250   0.169
    1res  C8    8    0.961  -0.101  -0.000
    1res  C9    9    0.746  -0.006   0.009
    1res  C10   10    0.805   0.098  -0.272
    1res  C11   11    0.657   0.278  -0.438
    1res  C12   12    0.743   0.397  -0.225
    1res  C13   13    0.644   0.239  -0.061
    1res  C14   14    0.232   0.132   0.075
    1res  C15   15    0.113  -0.083   0.146
    1res  C16   16   -0.077  -0.263   0.072
    1res  C17   17   -0.113   0.013   0.243
    1res  C18   18   -0.359  -0.066   0.281
    1res  C19   19   -0.516  -0.142   0.052
    1res  C20   20   -0.637   0.076   0.037
    1res  C21   21   -0.865  -0.019  -0.124
    1res  C22   22   -1.136  -0.181  -0.172
    1res  C23   23   -0.991   0.056  -0.337
    1res  C24   24   -1.060   0.242  -0.139
    1res  C25   25   -0.860   0.255  -0.047
    1res  C26   26   -0.583   0.193   0.245
    1res  C27   27   -0.209   0.203   0.076
  10.00000  10.00000  10.00000
