1TPCN00132
9
    1res  C1    1    0.505  -0.105  -0.034
    1res  C2    2    0.254   0.096   0.031
    1res  C3    3   -0.001  -0.042  -0.029
    1res  C4    4   -0.348  -0.008  -0.038
    1res  C5    5   -0.555   0.190  -0.169
    1res  C6    6   -0.511   0.112   0.109
    1res  C7    7   -0.483  -0.099   0.224
    1res  C8    8   -0.317  -0.235   0.106
    1res  C9    9    0.608   0.112  -0.202
  10.00000  10.00000  10.00000
