1TPCN05484
22
    1res  C1    1   -0.023   0.614   0.015
    1res  C2    2   -0.202   0.377   0.036
    1res  C3    3   -0.085   0.167   0.033
    1res  C4    4   -0.059  -0.048  -0.162
    1res  C5    5    0.242   0.202  -0.179
    1res  C6    6    0.383   0.086   0.085
    1res  C7    7    0.340  -0.031  -0.262
    1res  C8    8    0.576  -0.185  -0.248
    1res  C9    9    0.598  -0.265   0.053
    1res  C10   10    0.755  -0.140  -0.059
    1res  C11   11    0.900  -0.046   0.135
    1res  C12   12    0.180  -0.226  -0.115
    1res  C13   13   -0.162  -0.054   0.071
    1res  C14   14   -0.277  -0.274   0.072
    1res  C15   15   -0.679  -0.365   0.119
    1res  C16   16   -0.915  -0.423   0.051
    1res  C17   17   -0.798  -0.404  -0.131
    1res  C18   18   -0.646  -0.250  -0.139
    1res  C19   19   -0.428   0.025   0.083
    1res  C20   20   -0.421   0.396   0.165
    1res  C21   21   -0.325   0.600   0.236
    1res  C22   22   -0.263   0.696  -0.011
  10.00000  10.00000  10.00000
