[ moleculetype ]
; name        nrexcl
res           1

[ atoms ]
;    nr  type resnr resid  atom  cgnr     charge       mass
      1 TC4       1 res   C1        1      0.000     36.000
      2 TN4a      1 res   C2        2      0.000     36.000
      3 SN6       1 res   C3        3      0.000     54.000
      4 SC4       1 res   C4        4      0.000     54.000
      5 TC4       1 res   C5        5      0.000     36.000
      6 SN6       1 res   C6        6      0.000     54.000
      7 SC4       1 res   C7        7      0.000     54.000
      8 TC4       1 res   C8        8      0.000     36.000
      9 TC3       1 res   C9        9      0.000     36.000
     10 TN4a      1 res   C10      10      0.000     36.000
     11 P1        1 res   C11      11      0.000     72.000
     12 TC3       1 res   C12      12      0.000     36.000
     13 TC3       1 res   C13      13      0.000     36.000
     14 N3r       1 res   C14      14      0.000     72.000
     15 SN4a      1 res   C15      15      0.000     54.000
     16 TN6       1 res   C16      16      0.000     36.000
     17 TN6       1 res   C17      17      0.000     36.000
     18 TN6       1 res   C18      18      0.000     36.000
     19 SC2       1 res   C19      19      0.000     54.000
     20 TN6       1 res   C20      20      0.000     36.000
     21 TN6       1 res   C21      21      0.000     36.000
     22 TN6       1 res   C22      22      0.000     36.000

[ bonds ]
;  ai    aj   funct      b0(nm)        k
    1     2     1      0.29752    20000
    1    22     1      0.25577    20000
    2     3     1      0.24115    20000
    2    20     1      0.25515    20000
    3     4     1      0.29104    20000
    3    13     1      0.23728    20000
    4     5     1      0.39134    20000
    4    12     1      0.30185    20000
    4    13     1      0.25529    20000
    5     6     1      0.32116    20000
    5     7     1      0.26566    20000
    6     7     1      0.36908    20000
    7     8     1      0.28232    20000
    7    12     1      0.29211    20000
    8     9     1      0.31181    20000
    8    10     1      0.26469    20000
    9    10     1      0.23057    20000
   10    11     1      0.25970    20000
   13    14     1      0.24803    20000
   13    19     1      0.27731    20000
   14    15     1      0.41454    20000
   14    19     1      0.33490    20000
   15    16     1      0.25246    20000
   15    18     1      0.28456    20000
   16    17     1      0.21748    20000
   17    18     1      0.21625    20000
   20    21     1      0.23554    20000
   21    22     1      0.27174    20000
