[ moleculetype ]
; name        nrexcl
res           1

[ atoms ]
;    nr  type  resnr resid  atom  cgnr     charge       mass
      1 TC5       1 res   C1        1      0.000     36.000
      2 TC5       1 res   C2        2      0.000     36.000
      3 TC5       1 res   C3        3      0.000     36.000
      4 TC5       1 res   C4        4      0.000     36.000
      5 TC5       1 res   C5        5      0.000     36.000
      6 TC5       1 res   C6        6      0.000     36.000
      7 TC5       1 res   C7        7      0.000     36.000
      8 TC5       1 res   C8        8      0.000     36.000
      9 TC5       1 res   C9        9      0.000     36.000

[ constraints ]
;  ai    aj   funct      b0(nm)
    1     2     1      0.22302
    1     8     1      0.25283
    2     3     1      0.24493
    4     5     1      0.29031
    1     7     1      0.22281
    3     4     1      0.28793
    5     6     1      0.28844
    6     7     1      0.24515
    2     7     1      0.30630
    1     9     1      0.25307
    3     6     1      0.30613
    8     9     1      0.29050

[ bonds ]
;  ai    aj   funct      b0(nm)          k(kJ/mol/nm^2)

[ angles ]
;  ai    aj    ak  funct     th0(deg)        k(kJ/mol/rad^2)
    1     2     3     1    136.50392          2388.83
    1     2     7     1     46.56968          6146.21
    1     7     2     1     46.62487          6894.37
    1     7     6     1    136.25024          2282.24
    1     8     9     1     54.98711          7738.24
    1     9     8     1     54.90596          9012.99
    2     1     7     1     86.80542          2415.99
    2     1     8     1    169.72877           861.91
    2     1     9     1    101.65549          1616.75
    2     3     4     1    174.30299           737.53
    2     3     6     1     89.84891          5220.48
    2     7     6     1     89.77619          4295.62
    3     2     7     1     90.10193          4573.95
    3     4     5     1     91.42154          5697.68
    3     6     5     1     88.19120          6400.78
    3     6     7     1     90.09342          5443.23
    4     3     6     1     88.25939          5278.26
    4     5     6     1     91.29003          4780.35
    5     6     7     1    174.48639           710.59
    7     1     8     1    101.44980          1918.30
    7     1     9     1    169.48654           961.31
    8     1     9     1     70.10696          3099.69

[ dihedrals ]
;  ai    aj    ak    al  funct   phi0(deg)        k(kJ/mol)   mult
    1     2     3     4     1   -164.38240       16.842      1
    1     2     3     6     1   -179.29309       11.500      1
    1     2     7     6     1     -1.11221        8.515      1
    1     7     2     3     1      0.92920        8.531      1
    1     7     6     3     1   -178.79855       11.396      1
    1     7     6     5     1   -171.87554       16.375      1
    2     1     7     6     1    178.09522       10.735      1
    2     1     8     9     1    179.49725       29.486      1
    2     1     9     8     1     -0.92194       12.894      1
    2     3     4     5     1    169.46472       14.832      1
    2     3     6     5     1     -0.96740       10.088      1
    2     3     6     7     1    179.96681        7.805      1
    2     7     1     8     1     -0.93141       12.889      1
    2     7     1     9     1     -0.62596       30.573      1
    2     7     6     3     1   -179.96621        6.292      1
    2     7     6     5     1   -170.17951       15.710      1
    3     2     1     7     1   -179.86395       10.798      1
    3     2     1     8     1      1.89192       31.171      1
    3     2     1     9     1      1.07905       14.332      1
    3     2     7     6     1    179.05103        7.089      1
    3     4     5     6     1   -179.15658       11.524      1
    3     6     5     4     1    179.05668       11.514      1
    4     3     2     7     1   -177.00351       18.056      1
    4     3     6     5     1   -179.05426       11.515      1
    4     3     6     7     1     -1.10164       10.026      1
    4     5     6     7     1    176.81429       15.124      1
    5     4     3     6     1    179.18091       11.507      1
    6     3     2     7     1   -179.96621        6.292      1
    6     7     1     8     1     -0.95510       14.331      1
    6     7     1     9     1      0.68277       31.377      1
    7     1     8     9     1     -0.83678       12.889      1
    7     1     9     8     1    179.86943       31.758      1
    7     2     1     8     1     -1.44698       28.809      1
    7     2     1     9     1     -0.02008       12.244      1
