1TPCN04776
14
    1res  C1    1    0.585   0.086   0.056
    1res  C2    2    0.432   0.278   0.132
    1res  C3    3    0.274   0.118   0.245
    1res  C4    4    0.408  -0.067  -0.051
    1res  C5    5    0.183   0.112  -0.136
    1res  C6    6    0.219  -0.235  -0.029
    1res  C7    7    0.011  -0.138   0.176
    1res  C8    8   -0.050  -0.275  -0.111
    1res  C9    9   -0.279  -0.313   0.041
    1res  C10   10   -0.244   0.066   0.032
    1res  C11   11   -0.369   0.281   0.162
    1res  C12   12   -0.437   0.195  -0.110
    1res  C13   13   -0.478  -0.130  -0.182
    1res  C14   14   -0.140  -0.032  -0.276
  10.00000  10.00000  10.00000
