[ moleculetype ]
; name        nrexcl
res           1

[ atoms ]
;    nr  type  resnr resid  atom  cgnr     charge       mass
      1 SX3       1 res   C1        1      0.000     54.000
      2 TX3       1 res   C2        2      0.000     36.000
      3 TX3       1 res   C3        3      0.000     36.000
      4 SX3       1 res   C4        4      0.000     54.000

[ constraints ]
;  ai    aj   funct      b0(nm)
    1     2     1      0.26618
    2     3     1      0.21614
    1     4     1      0.29656
    3     4     1      0.28423

[ bonds ]
;  ai    aj   funct      b0(nm)          k(kJ/mol/nm^2)

[ angles ]
;  ai    aj    ak  funct     th0(deg)        k(kJ/mol/rad^2)
    1     2     3     1     93.75432          1225.04
    1     4     3     1     74.97663          2608.96
    2     1     4     1     83.80714           705.93
    2     3     4     1     96.61310           926.70

[ dihedrals ]
;  ai    aj    ak    al  funct   phi0(deg)        k(kJ/mol)   mult
    1     2     3     4     1    157.96915       16.468      1
    1     4     3     2     1   -159.96406       15.103      1
    2     1     4     3     1    164.84373       12.990      1
    3     2     1     4     1   -159.93953       15.092      1
