1TPCN05259
16
    1res  C1    1    0.601  -0.018   0.243
    1res  C2    2    0.559  -0.022  -0.091
    1res  C3    3    0.738  -0.049  -0.214
    1res  C4    4    0.720  -0.308  -0.221
    1res  C5    5    0.413   0.051   0.036
    1res  C6    6    0.294   0.222   0.094
    1res  C7    7    0.128  -0.008   0.284
    1res  C8    8   -0.056  -0.010   0.042
    1res  C9    9   -0.363  -0.026   0.141
    1res  C10   10   -0.597  -0.199  -0.136
    1res  C11   11   -0.810  -0.361  -0.173
    1res  C12   12   -0.892  -0.175   0.003
    1res  C13   13   -0.791  -0.008  -0.146
    1res  C14   14   -0.430   0.254   0.010
    1res  C15   15   -0.122   0.286   0.003
    1res  C16   16    0.074   0.190   0.057
  10.00000  10.00000  10.00000
