Generated with MDTraj, t= 0.0
 65
    1UNL     C1    1   0.168   0.519  -0.257
    1UNL     O1    2   0.041   0.465  -0.240
    1UNL     C2    3   0.032   0.395  -0.116
    1UNL     C3    4  -0.114   0.388  -0.062
    1UNL     C4    5  -0.113   0.296   0.064
    1UNL     C5    6  -0.250   0.269   0.123
    1UNL     O2    7  -0.025   0.361   0.159
    1UNL     C6    8   0.106   0.358   0.099
    1UNL     O3    9   0.110   0.454  -0.009
    1UNL     C7   10   0.115   0.217   0.028
    1UNL     C8   11   0.229   0.123   0.066
    1UNL     O4   12   0.226   0.003  -0.006
    1UNL     C9   13   0.319  -0.083   0.045
    1UNL     O5   14   0.403  -0.051   0.126
    1UNL    C10   15   0.308  -0.224   0.001
    1UNL    C11   16   0.381  -0.322   0.067
    1UNL    C12   17   0.364  -0.455   0.035
    1UNL    C13   18   0.275  -0.491  -0.064
    1UNL    C14   19   0.203  -0.395  -0.130
    1UNL    C15   20   0.219  -0.262  -0.098
    1UNL    C16   21   0.091   0.247  -0.124
    1UNL    C17   22  -0.016   0.135  -0.123
    1UNL    C18   23  -0.034   0.162   0.029
    1UNL     O6   24  -0.059   0.055   0.121
    1UNL    C19   25  -0.047  -0.074   0.064
    1UNL     O7   26  -0.134  -0.092  -0.048
    1UNL    C20   27  -0.268  -0.115  -0.003
    1UNL    C21   28  -0.372  -0.089  -0.112
    1UNL     O8   29  -0.503  -0.103  -0.061
    1UNL    C22   30  -0.281  -0.259   0.056
    1UNL     O9   31  -0.391  -0.267   0.146
    1UNL    C23   32  -0.146  -0.305   0.121
    1UNL    O10   33  -0.066  -0.378   0.030
    1UNL    C24   34  -0.067  -0.183   0.175
    1UNL    O11   35   0.057  -0.227   0.226
    1UNL     H1   36   0.242   0.439  -0.263
    1UNL     H2   37   0.190   0.584  -0.172
    1UNL     H3   38   0.169   0.577  -0.349
    1UNL     H4   39  -0.145   0.489  -0.034
    1UNL     H5   40  -0.183   0.352  -0.139
    1UNL     H6   41  -0.240   0.205   0.211
    1UNL     H7   42  -0.315   0.219   0.051
    1UNL     H8   43  -0.298   0.362   0.154
    1UNL     H9   44   0.184   0.377   0.173
    1UNL    H10   45   0.327   0.170   0.048
    1UNL    H11   46   0.223   0.098   0.172
    1UNL    H12   47   0.448  -0.292   0.146
    1UNL    H13   48   0.421  -0.531   0.087
    1UNL    H14   49   0.262  -0.595  -0.089
    1UNL    H15   50   0.132  -0.423  -0.207
    1UNL    H16   51   0.163  -0.186  -0.149
    1UNL    H17   52   0.178   0.233  -0.189
    1UNL    H18   53   0.024   0.036  -0.146
    1UNL    H19   54  -0.105   0.156  -0.183
    1UNL    H20   55   0.055  -0.082   0.026
    1UNL    H21   56  -0.285  -0.044   0.080
    1UNL    H22   57  -0.361   0.012  -0.152
    1UNL    H23   58  -0.358  -0.159  -0.195
    1UNL    H24   59  -0.498  -0.163   0.017
    1UNL    H25   60  -0.303  -0.327  -0.028
    1UNL    H26   61  -0.394  -0.356   0.189
    1UNL    H27   62  -0.168  -0.372   0.206
    1UNL    H28   63  -0.116  -0.453  -0.007
    1UNL    H29   64  -0.120  -0.137   0.259
    1UNL    H30   65   0.110  -0.265   0.153
   0.00000   0.00000   0.00000   0.00000   0.00000   0.00000   0.00000   0.00000   0.00000
Generated with MDTraj, t= 1.0
 65
    1UNL     C1    1   0.161   0.512  -0.277
    1UNL     O1    2   0.033   0.480  -0.234
    1UNL     C2    3   0.033   0.406  -0.118
    1UNL     C3    4  -0.108   0.403  -0.040
    1UNL     C4    5  -0.105   0.305   0.081
    1UNL     C5    6  -0.243   0.283   0.156
    1UNL     O2    7  -0.001   0.365   0.167
    1UNL     C6    8   0.121   0.353   0.094
    1UNL     O3    9   0.120   0.452  -0.017
    1UNL     C7   10   0.109   0.209   0.016
    1UNL     C8   11   0.224   0.117   0.043
    1UNL     O4   12   0.222  -0.010  -0.020
    1UNL     C9   13   0.313  -0.088   0.046
    1UNL     O5   14   0.391  -0.038   0.127
    1UNL    C10   15   0.317  -0.228   0.006
    1UNL    C11   16   0.401  -0.310   0.083
    1UNL    C12   17   0.402  -0.446   0.057
    1UNL    C13   18   0.320  -0.502  -0.043
    1UNL    C14   19   0.234  -0.420  -0.116
    1UNL    C15   20   0.233  -0.287  -0.088
    1UNL    C16   21   0.075   0.254  -0.134
    1UNL    C17   22  -0.040   0.154  -0.131
    1UNL    C18   23  -0.038   0.168   0.025
    1UNL     O6   24  -0.056   0.059   0.121
    1UNL    C19   25  -0.049  -0.071   0.069
    1UNL     O7   26  -0.143  -0.088  -0.041
    1UNL    C20   27  -0.276  -0.107   0.004
    1UNL    C21   28  -0.379  -0.059  -0.094
    1UNL     O8   29  -0.519  -0.091  -0.055
    1UNL    C22   30  -0.283  -0.256   0.038
    1UNL     O9   31  -0.408  -0.303   0.092
    1UNL    C23   32  -0.162  -0.307   0.122
    1UNL    O10   33  -0.088  -0.403   0.043
    1UNL    C24   34  -0.080  -0.191   0.172
    1UNL    O11   35   0.054  -0.242   0.190
    1UNL     H1   36   0.195   0.442  -0.355
    1UNL     H2   37   0.228   0.539  -0.194
    1UNL     H3   38   0.151   0.604  -0.339
    1UNL     H4   39  -0.135   0.491   0.001
    1UNL     H5   40  -0.201   0.369  -0.108
    1UNL     H6   41  -0.239   0.210   0.239
    1UNL     H7   42  -0.320   0.254   0.086
    1UNL     H8   43  -0.276   0.378   0.202
    1UNL     H9   44   0.203   0.350   0.165
    1UNL    H10   45   0.318   0.158   0.005
    1UNL    H11   46   0.238   0.095   0.147
    1UNL    H12   47   0.456  -0.273   0.164
    1UNL    H13   48   0.477  -0.503   0.109
    1UNL    H14   49   0.307  -0.610  -0.046
    1UNL    H15   50   0.171  -0.475  -0.186
    1UNL    H16   51   0.174  -0.224  -0.139
    1UNL    H17   52   0.156   0.235  -0.210
    1UNL    H18   53  -0.007   0.068  -0.176
    1UNL    H19   54  -0.135   0.192  -0.190
    1UNL    H20   55   0.053  -0.087   0.028
    1UNL    H21   56  -0.281  -0.059   0.100
    1UNL    H22   57  -0.370   0.051  -0.098
    1UNL    H23   58  -0.367  -0.094  -0.198
    1UNL    H24   59  -0.514  -0.114   0.041
    1UNL    H25   60  -0.268  -0.313  -0.054
    1UNL    H26   61  -0.403  -0.344   0.179
    1UNL    H27   62  -0.192  -0.357   0.214
    1UNL    H28   63  -0.139  -0.489   0.043
    1UNL    H29   64  -0.119  -0.143   0.260
    1UNL    H30   65   0.069  -0.312   0.128
   0.00000   0.00000   0.00000   0.00000   0.00000   0.00000   0.00000   0.00000   0.00000
Generated with MDTraj, t= 2.0
 65
    1UNL     C1    1   0.137   0.510  -0.283
    1UNL     O1    2   0.009   0.461  -0.237
    1UNL     C2    3   0.026   0.405  -0.110
    1UNL     C3    4  -0.112   0.403  -0.038
    1UNL     C4    5  -0.101   0.303   0.084
    1UNL     C5    6  -0.220   0.286   0.184
    1UNL     O2    7   0.006   0.357   0.173
    1UNL     C6    8   0.128   0.351   0.098
    1UNL     O3    9   0.117   0.455  -0.007
    1UNL     C7   10   0.119   0.215   0.015
    1UNL     C8   11   0.240   0.120   0.038
    1UNL     O4   12   0.226  -0.010  -0.012
    1UNL     C9   13   0.325  -0.090   0.040
    1UNL     O5   14   0.407  -0.051   0.120
    1UNL    C10   15   0.332  -0.235   0.010
    1UNL    C11   16   0.419  -0.318   0.084
    1UNL    C12   17   0.428  -0.455   0.066
    1UNL    C13   18   0.348  -0.515  -0.027
    1UNL    C14   19   0.258  -0.435  -0.101
    1UNL    C15   20   0.251  -0.300  -0.084
    1UNL    C16   21   0.068   0.255  -0.130
    1UNL    C17   22  -0.038   0.147  -0.118
    1UNL    C18   23  -0.033   0.169   0.033
    1UNL     O6   24  -0.048   0.050   0.116
    1UNL    C19   25  -0.061  -0.064   0.044
    1UNL     O7   26  -0.169  -0.070  -0.060
    1UNL    C20   27  -0.295  -0.109  -0.011
    1UNL    C21   28  -0.412  -0.061  -0.098
    1UNL     O8   29  -0.552  -0.078  -0.049
    1UNL    C22   30  -0.290  -0.262   0.021
    1UNL     O9   31  -0.412  -0.288   0.089
    1UNL    C23   32  -0.172  -0.302   0.115
    1UNL    O10   33  -0.095  -0.412   0.058
    1UNL    C24   34  -0.085  -0.179   0.147
    1UNL    O11   35   0.053  -0.216   0.183
    1UNL     H1   36   0.208   0.436  -0.320
    1UNL     H2   37   0.175   0.586  -0.209
    1UNL     H3   38   0.131   0.567  -0.382
    1UNL     H4   39  -0.137   0.501  -0.001
    1UNL     H5   40  -0.195   0.373  -0.107
    1UNL     H6   41  -0.188   0.209   0.257
    1UNL     H7   42  -0.312   0.252   0.131
    1UNL     H8   43  -0.239   0.377   0.243
    1UNL     H9   44   0.219   0.374   0.153
    1UNL    H10   45   0.341   0.157   0.009
    1UNL    H11   46   0.246   0.102   0.143
    1UNL    H12   47   0.486  -0.258   0.160
    1UNL    H13   48   0.486  -0.521   0.131
    1UNL    H14   49   0.361  -0.621  -0.055
    1UNL    H15   50   0.191  -0.470  -0.177
    1UNL    H16   51   0.178  -0.226  -0.142
    1UNL    H17   52   0.152   0.236  -0.205
    1UNL    H18   53   0.004   0.053  -0.147
    1UNL    H19   54  -0.143   0.164  -0.162
    1UNL    H20   55   0.035  -0.088  -0.008
    1UNL    H21   56  -0.299  -0.057   0.081
    1UNL    H22   57  -0.398   0.042  -0.132
    1UNL    H23   58  -0.415  -0.120  -0.194
    1UNL    H24   59  -0.611  -0.010  -0.087
    1UNL    H25   60  -0.285  -0.313  -0.074
    1UNL    H26   61  -0.500  -0.270   0.045
    1UNL    H27   62  -0.220  -0.325   0.211
    1UNL    H28   63  -0.005  -0.386   0.034
    1UNL    H29   64  -0.135  -0.127   0.224
    1UNL    H30   65   0.079  -0.172   0.265
   0.00000   0.00000   0.00000   0.00000   0.00000   0.00000   0.00000   0.00000   0.00000
Generated with MDTraj, t= 3.0
 65
    1UNL     C1    1   0.134   0.552  -0.270
    1UNL     O1    2   0.016   0.478  -0.237
    1UNL     C2    3   0.026   0.397  -0.118
    1UNL     C3    4  -0.109   0.399  -0.044
    1UNL     C4    5  -0.092   0.297   0.080
    1UNL     C5    6  -0.220   0.276   0.157
    1UNL     O2    7   0.009   0.352   0.163
    1UNL     C6    8   0.130   0.348   0.083
    1UNL     O3    9   0.124   0.443  -0.019
    1UNL     C7   10   0.119   0.208   0.008
    1UNL     C8   11   0.238   0.113   0.042
    1UNL     O4   12   0.220  -0.017   0.003
    1UNL     C9   13   0.327  -0.085   0.046
    1UNL     O5   14   0.421  -0.038   0.108
    1UNL    C10   15   0.329  -0.232   0.025
    1UNL    C11   16   0.427  -0.309   0.083
    1UNL    C12   17   0.436  -0.446   0.061
    1UNL    C13   18   0.347  -0.506  -0.034
    1UNL    C14   19   0.255  -0.422  -0.098
    1UNL    C15   20   0.250  -0.286  -0.074
    1UNL    C16   21   0.073   0.240  -0.143
    1UNL    C17   22  -0.039   0.140  -0.129
    1UNL    C18   23  -0.024   0.155   0.028
    1UNL     O6   24  -0.043   0.053   0.128
    1UNL    C19   25  -0.061  -0.070   0.071
    1UNL     O7   26  -0.164  -0.073  -0.040
    1UNL    C20   27  -0.301  -0.105  -0.002
    1UNL    C21   28  -0.412  -0.071  -0.102
    1UNL     O8   29  -0.536  -0.091  -0.050
    1UNL    C22   30  -0.312  -0.257   0.029
    1UNL     O9   31  -0.433  -0.282   0.104
    1UNL    C23   32  -0.179  -0.305   0.102
    1UNL    O10   33  -0.095  -0.371   0.004
    1UNL    C24   34  -0.093  -0.193   0.172
    1UNL    O11   35   0.032  -0.245   0.220
    1UNL     H1   36   0.218   0.493  -0.304
    1UNL     H2   37   0.163   0.616  -0.182
    1UNL     H3   38   0.124   0.624  -0.356
    1UNL     H4   39  -0.118   0.508  -0.001
    1UNL     H5   40  -0.186   0.387  -0.109
    1UNL     H6   41  -0.186   0.235   0.255
    1UNL     H7   42  -0.282   0.202   0.097
    1UNL     H8   43  -0.276   0.368   0.181
    1UNL     H9   44   0.223   0.369   0.136
    1UNL    H10   45   0.332   0.159  -0.001
    1UNL    H11   46   0.250   0.112   0.148
    1UNL    H12   47   0.488  -0.268   0.152
    1UNL    H13   48   0.504  -0.511   0.111
    1UNL    H14   49   0.356  -0.604  -0.071
    1UNL    H15   50   0.192  -0.464  -0.179
    1UNL    H16   51   0.181  -0.223  -0.119
    1UNL    H17   52   0.152   0.201  -0.219
    1UNL    H18   53  -0.007   0.035  -0.164
    1UNL    H19   54  -0.131   0.172  -0.175
    1UNL    H20   55   0.036  -0.092   0.020
    1UNL    H21   56  -0.310  -0.056   0.090
    1UNL    H22   57  -0.407   0.034  -0.139
    1UNL    H23   58  -0.398  -0.133  -0.196
    1UNL    H24   59  -0.559  -0.027   0.021
    1UNL    H25   60  -0.308  -0.304  -0.070
    1UNL    H26   61  -0.510  -0.301   0.049
    1UNL    H27   62  -0.206  -0.380   0.178
    1UNL    H28   63  -0.049  -0.454   0.033
    1UNL    H29   64  -0.152  -0.157   0.250
    1UNL    H30   65   0.094  -0.272   0.144
   0.00000   0.00000   0.00000   0.00000   0.00000   0.00000   0.00000   0.00000   0.00000
Generated with MDTraj, t= 4.0
 65
    1UNL     C1    1   0.133   0.543  -0.248
    1UNL     O1    2   0.033   0.455  -0.251
    1UNL     C2    3   0.029   0.386  -0.120
    1UNL     C3    4  -0.113   0.374  -0.056
    1UNL     C4    5  -0.107   0.285   0.071
    1UNL     C5    6  -0.251   0.266   0.142
    1UNL     O2    7  -0.013   0.353   0.164
    1UNL     C6    8   0.115   0.359   0.092
    1UNL     O3    9   0.122   0.448  -0.018
    1UNL     C7   10   0.121   0.212   0.028
    1UNL     C8   11   0.239   0.116   0.060
    1UNL     O4   12   0.233  -0.006  -0.008
    1UNL     C9   13   0.333  -0.086   0.044
    1UNL     O5   14   0.428  -0.043   0.109
    1UNL    C10   15   0.330  -0.227   0.007
    1UNL    C11   16   0.427  -0.307   0.068
    1UNL    C12   17   0.428  -0.444   0.045
    1UNL    C13   18   0.326  -0.505  -0.033
    1UNL    C14   19   0.238  -0.427  -0.102
    1UNL    C15   20   0.237  -0.289  -0.076
    1UNL    C16   21   0.096   0.238  -0.128
    1UNL    C17   22  -0.007   0.130  -0.125
    1UNL    C18   23  -0.025   0.154   0.030
    1UNL     O6   24  -0.057   0.053   0.125
    1UNL    C19   25  -0.076  -0.073   0.067
    1UNL     O7   26  -0.163  -0.082  -0.051
    1UNL    C20   27  -0.293  -0.104  -0.004
    1UNL    C21   28  -0.406  -0.054  -0.096
    1UNL     O8   29  -0.532  -0.081  -0.054
    1UNL    C22   30  -0.306  -0.255   0.042
    1UNL     O9   31  -0.410  -0.266   0.143
    1UNL    C23   32  -0.163  -0.306   0.094
    1UNL    O10   33  -0.094  -0.370  -0.010
    1UNL    C24   34  -0.090  -0.195   0.163
    1UNL    O11   35   0.034  -0.227   0.223
    1UNL     H1   36   0.220   0.505  -0.200
    1UNL     H2   37   0.108   0.635  -0.186
    1UNL     H3   38   0.148   0.580  -0.351
    1UNL     H4   39  -0.156   0.477  -0.030
    1UNL     H5   40  -0.181   0.326  -0.124
    1UNL     H6   41  -0.248   0.167   0.196
    1UNL     H7   42  -0.321   0.252   0.055
    1UNL     H8   43  -0.291   0.340   0.218
    1UNL     H9   44   0.193   0.378   0.165
    1UNL    H10   45   0.333   0.173   0.031
    1UNL    H11   46   0.240   0.106   0.168
    1UNL    H12   47   0.499  -0.257   0.136
    1UNL    H13   48   0.511  -0.495   0.096
    1UNL    H14   49   0.319  -0.617  -0.032
    1UNL    H15   50   0.166  -0.468  -0.165
    1UNL    H16   51   0.180  -0.221  -0.133
    1UNL    H17   52   0.195   0.219  -0.186
    1UNL    H18   53   0.036   0.020  -0.135
    1UNL    H19   54  -0.100   0.144  -0.174
    1UNL    H20   55   0.028  -0.076   0.029
    1UNL    H21   56  -0.303  -0.059   0.090
    1UNL    H22   57  -0.390   0.057  -0.105
    1UNL    H23   58  -0.393  -0.090  -0.205
    1UNL    H24   59  -0.561  -0.029   0.025
    1UNL    H25   60  -0.329  -0.315  -0.047
    1UNL    H26   61  -0.488  -0.323   0.126
    1UNL    H27   62  -0.176  -0.383   0.171
    1UNL    H28   63  -0.035  -0.303  -0.054
    1UNL    H29   64  -0.153  -0.162   0.241
    1UNL    H30   65   0.080  -0.147   0.266
   0.00000   0.00000   0.00000   0.00000   0.00000   0.00000   0.00000   0.00000   0.00000
Generated with MDTraj, t= 5.0
 65
    1UNL     C1    1   0.152   0.543  -0.242
    1UNL     O1    2   0.046   0.451  -0.242
    1UNL     C2    3   0.031   0.388  -0.113
    1UNL     C3    4  -0.115   0.382  -0.071
    1UNL     C4    5  -0.114   0.290   0.049
    1UNL     C5    6  -0.256   0.259   0.096
    1UNL     O2    7  -0.037   0.353   0.152
    1UNL     C6    8   0.099   0.357   0.102
    1UNL     O3    9   0.100   0.454  -0.007
    1UNL     C7   10   0.117   0.214   0.034
    1UNL     C8   11   0.230   0.118   0.078
    1UNL     O4   12   0.223  -0.008   0.011
    1UNL     C9   13   0.332  -0.085   0.050
    1UNL     O5   14   0.423  -0.039   0.117
    1UNL    C10   15   0.333  -0.227   0.006
    1UNL    C11   16   0.422  -0.320   0.058
    1UNL    C12   17   0.411  -0.455   0.029
    1UNL    C13   18   0.307  -0.499  -0.053
    1UNL    C14   19   0.215  -0.404  -0.105
    1UNL    C15   20   0.233  -0.268  -0.075
    1UNL    C16   21   0.097   0.241  -0.119
    1UNL    C17   22   0.001   0.125  -0.132
    1UNL    C18   23  -0.032   0.150   0.018
    1UNL     O6   24  -0.056   0.049   0.115
    1UNL    C19   25  -0.053  -0.082   0.063
    1UNL     O7   26  -0.150  -0.087  -0.046
    1UNL    C20   27  -0.282  -0.107   0.004
    1UNL    C21   28  -0.387  -0.076  -0.101
    1UNL     O8   29  -0.522  -0.073  -0.046
    1UNL    C22   30  -0.303  -0.254   0.058
    1UNL     O9   31  -0.392  -0.251   0.165
    1UNL    C23   32  -0.167  -0.311   0.109
    1UNL    O10   33  -0.094  -0.358  -0.007
    1UNL    C24   34  -0.077  -0.191   0.170
    1UNL    O11   35   0.052  -0.243   0.209
    1UNL     H1   36   0.238   0.510  -0.187
    1UNL     H2   37   0.141   0.640  -0.185
    1UNL     H3   38   0.166   0.571  -0.345
    1UNL     H4   39  -0.150   0.479  -0.042
    1UNL     H5   40  -0.183   0.341  -0.164
    1UNL     H6   41  -0.246   0.256   0.210
    1UNL     H7   42  -0.300   0.166   0.052
    1UNL     H8   43  -0.335   0.342   0.083
    1UNL     H9   44   0.176   0.373   0.179
    1UNL    H10   45   0.333   0.167   0.086
    1UNL    H11   46   0.202   0.087   0.181
    1UNL    H12   47   0.501  -0.282   0.132
    1UNL    H13   48   0.476  -0.531   0.067
    1UNL    H14   49   0.293  -0.601  -0.060
    1UNL    H15   50   0.135  -0.430  -0.184
    1UNL    H16   51   0.151  -0.197  -0.118
    1UNL    H17   52   0.200   0.226  -0.171
    1UNL    H18   53   0.045   0.023  -0.141
    1UNL    H19   54  -0.079   0.138  -0.210
    1UNL    H20   55   0.051  -0.096   0.031
    1UNL    H21   56  -0.295  -0.048   0.088
    1UNL    H22   57  -0.357   0.025  -0.139
    1UNL    H23   58  -0.372  -0.146  -0.192
    1UNL    H24   59  -0.527  -0.098   0.049
    1UNL    H25   60  -0.344  -0.311  -0.030
    1UNL    H26   61  -0.361  -0.180   0.229
    1UNL    H27   62  -0.193  -0.392   0.180
    1UNL    H28   63  -0.114  -0.293  -0.076
    1UNL    H29   64  -0.118  -0.144   0.257
    1UNL    H30   65   0.075  -0.335   0.193
   0.00000   0.00000   0.00000   0.00000   0.00000   0.00000   0.00000   0.00000   0.00000
Generated with MDTraj, t= 6.0
 65
    1UNL     C1    1   0.186   0.525  -0.233
    1UNL     O1    2   0.071   0.442  -0.247
    1UNL     C2    3   0.044   0.393  -0.122
    1UNL     C3    4  -0.107   0.389  -0.084
    1UNL     C4    5  -0.127   0.286   0.041
    1UNL     C5    6  -0.269   0.266   0.085
    1UNL     O2    7  -0.054   0.346   0.151
    1UNL     C6    8   0.081   0.349   0.108
    1UNL     O3    9   0.105   0.450   0.005
    1UNL     C7   10   0.106   0.214   0.035
    1UNL     C8   11   0.212   0.122   0.089
    1UNL     O4   12   0.216   0.001   0.011
    1UNL     C9   13   0.320  -0.076   0.055
    1UNL     O5   14   0.407  -0.036   0.130
    1UNL    C10   15   0.321  -0.215   0.002
    1UNL    C11   16   0.398  -0.313   0.059
    1UNL    C12   17   0.391  -0.445   0.021
    1UNL    C13   18   0.300  -0.480  -0.076
    1UNL    C14   19   0.213  -0.386  -0.127
    1UNL    C15   20   0.223  -0.248  -0.092
    1UNL    C16   21   0.100   0.248  -0.122
    1UNL    C17   22  -0.005   0.131  -0.128
    1UNL    C18   23  -0.040   0.155   0.019
    1UNL     O6   24  -0.064   0.043   0.110
    1UNL    C19   25  -0.045  -0.093   0.062
    1UNL     O7   26  -0.134  -0.117  -0.047
    1UNL    C20   27  -0.271  -0.113   0.000
    1UNL    C21   28  -0.373  -0.091  -0.113
    1UNL     O8   29  -0.503  -0.084  -0.045
    1UNL    C22   30  -0.291  -0.244   0.093
    1UNL     O9   31  -0.385  -0.218   0.194
    1UNL    C23   32  -0.158  -0.307   0.120
    1UNL    O10   33  -0.116  -0.381   0.006
    1UNL    C24   34  -0.056  -0.197   0.169
    1UNL    O11   35   0.071  -0.258   0.197
    1UNL     H1   36   0.276   0.472  -0.250
    1UNL     H2   37   0.209   0.566  -0.132
    1UNL     H3   38   0.177   0.612  -0.295
    1UNL     H4   39  -0.136   0.490  -0.057
    1UNL     H5   40  -0.174   0.353  -0.163
    1UNL     H6   41  -0.279   0.173   0.152
    1UNL     H7   42  -0.335   0.259  -0.007
    1UNL     H8   43  -0.314   0.347   0.155
    1UNL     H9   44   0.153   0.373   0.190
    1UNL    H10   45   0.313   0.171   0.069
    1UNL    H11   46   0.216   0.103   0.199
    1UNL    H12   47   0.456  -0.282   0.133
    1UNL    H13   48   0.450  -0.515   0.082
    1UNL    H14   49   0.311  -0.575  -0.136
    1UNL    H15   50   0.142  -0.413  -0.196
    1UNL    H16   51   0.166  -0.175  -0.136
    1UNL    H17   52   0.196   0.219  -0.184
    1UNL    H18   53   0.033   0.034  -0.142
    1UNL    H19   54  -0.097   0.145  -0.201
    1UNL    H20   55   0.061  -0.088   0.026
    1UNL    H21   56  -0.271  -0.038   0.071
    1UNL    H22   57  -0.353  -0.004  -0.179
    1UNL    H23   58  -0.371  -0.186  -0.178
    1UNL    H24   59  -0.476  -0.110   0.047
    1UNL    H25   60  -0.338  -0.320   0.024
    1UNL    H26   61  -0.353  -0.189   0.283
    1UNL    H27   62  -0.175  -0.382   0.198
    1UNL    H28   63  -0.108  -0.315  -0.069
    1UNL    H29   64  -0.099  -0.145   0.254
    1UNL    H30   65   0.099  -0.327   0.137
   0.00000   0.00000   0.00000   0.00000   0.00000   0.00000   0.00000   0.00000   0.00000
Generated with MDTraj, t= 7.0
 65
    1UNL     C1    1   0.205   0.487  -0.249
    1UNL     O1    2   0.069   0.460  -0.226
    1UNL     C2    3   0.043   0.391  -0.105
    1UNL     C3    4  -0.118   0.385  -0.076
    1UNL     C4    5  -0.132   0.289   0.049
    1UNL     C5    6  -0.280   0.256   0.081
    1UNL     O2    7  -0.060   0.353   0.155
    1UNL     C6    8   0.078   0.349   0.108
    1UNL     O3    9   0.093   0.447   0.011
    1UNL     C7   10   0.100   0.208   0.042
    1UNL     C8   11   0.214   0.121   0.085
    1UNL     O4   12   0.240   0.006   0.001
    1UNL     C9   13   0.331  -0.082   0.055
    1UNL     O5   14   0.402  -0.062   0.152
    1UNL    C10   15   0.329  -0.218  -0.011
    1UNL    C11   16   0.386  -0.319   0.059
    1UNL    C12   17   0.367  -0.450   0.020
    1UNL    C13   18   0.299  -0.480  -0.099
    1UNL    C14   19   0.242  -0.377  -0.171
    1UNL    C15   20   0.260  -0.248  -0.129
    1UNL    C16   21   0.098   0.250  -0.109
    1UNL    C17   22  -0.006   0.141  -0.132
    1UNL    C18   23  -0.051   0.152   0.018
    1UNL     O6   24  -0.085   0.047   0.109
    1UNL    C19   25  -0.048  -0.078   0.054
    1UNL     O7   26  -0.134  -0.122  -0.049
    1UNL    C20   27  -0.277  -0.123  -0.005
    1UNL    C21   28  -0.382  -0.119  -0.122
    1UNL     O8   29  -0.514  -0.087  -0.085
    1UNL    C22   30  -0.294  -0.234   0.108
    1UNL     O9   31  -0.371  -0.181   0.213
    1UNL    C23   32  -0.162  -0.301   0.147
    1UNL    O10   33  -0.108  -0.394   0.053
    1UNL    C24   34  -0.050  -0.181   0.175
    1UNL    O11   35   0.082  -0.232   0.190
    1UNL     H1   36   0.267   0.411  -0.217
    1UNL     H2   37   0.233   0.585  -0.209
    1UNL     H3   38   0.224   0.500  -0.355
    1UNL     H4   39  -0.151   0.485  -0.042
    1UNL     H5   40  -0.179   0.355  -0.148
    1UNL     H6   41  -0.291   0.192   0.175
    1UNL     H7   42  -0.334   0.209  -0.012
    1UNL     H8   43  -0.340   0.349   0.112
    1UNL     H9   44   0.155   0.359   0.189
    1UNL    H10   45   0.315   0.171   0.104
    1UNL    H11   46   0.196   0.080   0.188
    1UNL    H12   47   0.418  -0.297   0.169
    1UNL    H13   48   0.411  -0.524   0.083
    1UNL    H14   49   0.298  -0.581  -0.127
    1UNL    H15   50   0.190  -0.406  -0.267
    1UNL    H16   51   0.216  -0.168  -0.185
    1UNL    H17   52   0.202   0.231  -0.159
    1UNL    H18   53   0.042   0.049  -0.161
    1UNL    H19   54  -0.086   0.175  -0.207
    1UNL    H20   55   0.060  -0.064   0.020
    1UNL    H21   56  -0.291  -0.037   0.052
    1UNL    H22   57  -0.354  -0.031  -0.178
    1UNL    H23   58  -0.390  -0.210  -0.193
    1UNL    H24   59  -0.536  -0.143  -0.007
    1UNL    H25   60  -0.351  -0.314   0.056
    1UNL    H26   61  -0.326  -0.108   0.258
    1UNL    H27   62  -0.176  -0.364   0.236
    1UNL    H28   63  -0.076  -0.340  -0.021
    1UNL    H29   64  -0.074  -0.125   0.266
    1UNL    H30   65   0.100  -0.295   0.116
   0.00000   0.00000   0.00000   0.00000   0.00000   0.00000   0.00000   0.00000   0.00000
Generated with MDTraj, t= 8.0
 65
    1UNL     C1    1   0.196   0.522  -0.226
    1UNL     O1    2   0.069   0.471  -0.232
    1UNL     C2    3   0.042   0.387  -0.122
    1UNL     C3    4  -0.104   0.388  -0.079
    1UNL     C4    5  -0.125   0.300   0.044
    1UNL     C5    6  -0.268   0.279   0.099
    1UNL     O2    7  -0.043   0.355   0.154
    1UNL     C6    8   0.092   0.339   0.100
    1UNL     O3    9   0.113   0.436  -0.001
    1UNL     C7   10   0.101   0.205   0.026
    1UNL     C8   11   0.202   0.112   0.083
    1UNL     O4   12   0.213  -0.002   0.006
    1UNL     C9   13   0.306  -0.089   0.063
    1UNL     O5   14   0.382  -0.059   0.153
    1UNL    C10   15   0.314  -0.217  -0.007
    1UNL    C11   16   0.346  -0.328   0.070
    1UNL    C12   17   0.356  -0.451   0.006
    1UNL    C13   18   0.320  -0.463  -0.124
    1UNL    C14   19   0.279  -0.355  -0.202
    1UNL    C15   20   0.270  -0.235  -0.141
    1UNL    C16   21   0.092   0.238  -0.127
    1UNL    C17   22  -0.024   0.127  -0.126
    1UNL    C18   23  -0.049   0.158   0.023
    1UNL     O6   24  -0.093   0.047   0.113
    1UNL    C19   25  -0.060  -0.083   0.072
    1UNL     O7   26  -0.122  -0.131  -0.036
    1UNL    C20   27  -0.265  -0.126  -0.009
    1UNL    C21   28  -0.359  -0.159  -0.117
    1UNL     O8   29  -0.492  -0.129  -0.084
    1UNL    C22   30  -0.300  -0.228   0.107
    1UNL     O9   31  -0.366  -0.141   0.200
    1UNL    C23   32  -0.163  -0.294   0.159
    1UNL    O10   33  -0.113  -0.371   0.062
    1UNL    C24   34  -0.054  -0.189   0.190
    1UNL    O11   35   0.071  -0.254   0.206
    1UNL     H1   36   0.263   0.445  -0.240
    1UNL     H2   37   0.194   0.580  -0.129
    1UNL     H3   38   0.221   0.599  -0.302
    1UNL     H4   39  -0.132   0.485  -0.061
    1UNL     H5   40  -0.175   0.338  -0.158
    1UNL     H6   41  -0.263   0.248   0.210
    1UNL     H7   42  -0.321   0.203   0.029
    1UNL     H8   43  -0.326   0.379   0.102
    1UNL     H9   44   0.172   0.341   0.179
    1UNL    H10   45   0.305   0.157   0.106
    1UNL    H11   46   0.172   0.078   0.184
    1UNL    H12   47   0.367  -0.311   0.173
    1UNL    H13   48   0.376  -0.542   0.063
    1UNL    H14   49   0.319  -0.567  -0.159
    1UNL    H15   50   0.265  -0.363  -0.306
    1UNL    H16   51   0.244  -0.142  -0.202
    1UNL    H17   52   0.183   0.216  -0.196
    1UNL    H18   53   0.018   0.020  -0.138
    1UNL    H19   54  -0.105   0.141  -0.197
    1UNL    H20   55   0.053  -0.077   0.056
    1UNL    H21   56  -0.293  -0.032   0.029
    1UNL    H22   57  -0.334  -0.106  -0.205
    1UNL    H23   58  -0.349  -0.271  -0.127
    1UNL    H24   59  -0.529  -0.187  -0.016
    1UNL    H25   60  -0.371  -0.308   0.077
    1UNL    H26   61  -0.301  -0.072   0.217
    1UNL    H27   62  -0.182  -0.360   0.245
    1UNL    H28   63  -0.088  -0.311  -0.014
    1UNL    H29   64  -0.078  -0.137   0.286
    1UNL    H30   65   0.067  -0.333   0.142
   0.00000   0.00000   0.00000   0.00000   0.00000   0.00000   0.00000   0.00000   0.00000
Generated with MDTraj, t= 9.0
 65
    1UNL     C1    1   0.151   0.543  -0.243
    1UNL     O1    2   0.058   0.441  -0.241
    1UNL     C2    3   0.042   0.387  -0.107
    1UNL     C3    4  -0.111   0.390  -0.074
    1UNL     C4    5  -0.117   0.298   0.056
    1UNL     C5    6  -0.261   0.286   0.098
    1UNL     O2    7  -0.037   0.360   0.152
    1UNL     C6    8   0.093   0.357   0.107
    1UNL     O3    9   0.111   0.454  -0.002
    1UNL     C7   10   0.105   0.208   0.046
    1UNL     C8   11   0.218   0.111   0.087
    1UNL     O4   12   0.234   0.006  -0.001
    1UNL     C9   13   0.302  -0.101   0.055
    1UNL     O5   14   0.356  -0.087   0.162
    1UNL    C10   15   0.317  -0.232  -0.014
    1UNL    C11   16   0.343  -0.352   0.055
    1UNL    C12   17   0.349  -0.471  -0.008
    1UNL    C13   18   0.331  -0.473  -0.143
    1UNL    C14   19   0.307  -0.357  -0.215
    1UNL    C15   20   0.300  -0.234  -0.154
    1UNL    C16   21   0.098   0.236  -0.108
    1UNL    C17   22  -0.011   0.128  -0.122
    1UNL    C18   23  -0.045   0.162   0.030
    1UNL     O6   24  -0.091   0.054   0.126
    1UNL    C19   25  -0.055  -0.073   0.074
    1UNL     O7   26  -0.134  -0.115  -0.036
    1UNL    C20   27  -0.276  -0.125  -0.008
    1UNL    C21   28  -0.339  -0.174  -0.137
    1UNL     O8   29  -0.478  -0.181  -0.131
    1UNL    C22   30  -0.303  -0.200   0.126
    1UNL     O9   31  -0.366  -0.115   0.229
    1UNL    C23   32  -0.175  -0.287   0.175
    1UNL    O10   33  -0.137  -0.386   0.077
    1UNL    C24   34  -0.059  -0.177   0.198
    1UNL    O11   35   0.061  -0.241   0.211
    1UNL     H1   36   0.247   0.501  -0.239
    1UNL     H2   37   0.121   0.621  -0.164
    1UNL     H3   38   0.157   0.600  -0.340
    1UNL     H4   39  -0.131   0.491  -0.054
    1UNL     H5   40  -0.179   0.355  -0.165
    1UNL     H6   41  -0.280   0.204   0.180
    1UNL     H7   42  -0.332   0.281   0.007
    1UNL     H8   43  -0.273   0.384   0.159
    1UNL     H9   44   0.165   0.373   0.191
    1UNL    H10   45   0.314   0.171   0.081
    1UNL    H11   46   0.212   0.079   0.191
    1UNL    H12   47   0.348  -0.345   0.158
    1UNL    H13   48   0.366  -0.561   0.045
    1UNL    H14   49   0.330  -0.559  -0.210
    1UNL    H15   50   0.319  -0.362  -0.325
    1UNL    H16   51   0.282  -0.150  -0.207
    1UNL    H17   52   0.197   0.228  -0.168
    1UNL    H18   53   0.016   0.012  -0.130
    1UNL    H19   54  -0.078   0.158  -0.199
    1UNL    H20   55   0.048  -0.063   0.033
    1UNL    H21   56  -0.321  -0.031   0.007
    1UNL    H22   57  -0.302  -0.110  -0.210
    1UNL    H23   58  -0.300  -0.276  -0.149
    1UNL    H24   59  -0.516  -0.091  -0.139
    1UNL    H25   60  -0.386  -0.267   0.101
    1UNL    H26   61  -0.317  -0.033   0.247
    1UNL    H27   62  -0.193  -0.345   0.267
    1UNL    H28   63  -0.148  -0.347  -0.011
    1UNL    H29   64  -0.075  -0.112   0.290
    1UNL    H30   65   0.057  -0.321   0.159
   0.00000   0.00000   0.00000   0.00000   0.00000   0.00000   0.00000   0.00000   0.00000
Generated with MDTraj, t= 10.0
 65
    1UNL     C1    1   0.124   0.557  -0.232
    1UNL     O1    2   0.066   0.433  -0.250
    1UNL     C2    3   0.037   0.377  -0.121
    1UNL     C3    4  -0.110   0.380  -0.062
    1UNL     C4    5  -0.124   0.299   0.069
    1UNL     C5    6  -0.261   0.280   0.129
    1UNL     O2    7  -0.024   0.363   0.162
    1UNL     C6    8   0.102   0.352   0.099
    1UNL     O3    9   0.124   0.436  -0.013
    1UNL     C7   10   0.107   0.207   0.037
    1UNL     C8   11   0.219   0.107   0.076
    1UNL     O4   12   0.229   0.000  -0.003
    1UNL     C9   13   0.293  -0.101   0.060
    1UNL     O5   14   0.335  -0.087   0.173
    1UNL    C10   15   0.306  -0.229  -0.015
    1UNL    C11   16   0.341  -0.349   0.052
    1UNL    C12   17   0.348  -0.462  -0.023
    1UNL    C13   18   0.333  -0.461  -0.160
    1UNL    C14   19   0.325  -0.339  -0.222
    1UNL    C15   20   0.311  -0.225  -0.150
    1UNL    C16   21   0.088   0.230  -0.116
    1UNL    C17   22  -0.028   0.121  -0.115
    1UNL    C18   23  -0.042   0.162   0.039
    1UNL     O6   24  -0.083   0.048   0.121
    1UNL    C19   25  -0.049  -0.085   0.082
    1UNL     O7   26  -0.116  -0.122  -0.033
    1UNL    C20   27  -0.264  -0.118  -0.020
    1UNL    C21   28  -0.324  -0.203  -0.139
    1UNL     O8   29  -0.463  -0.204  -0.126
    1UNL    C22   30  -0.310  -0.172   0.116
    1UNL     O9   31  -0.332  -0.062   0.195
    1UNL    C23   32  -0.197  -0.269   0.170
    1UNL    O10   33  -0.166  -0.375   0.083
    1UNL    C24   34  -0.073  -0.186   0.201
    1UNL    O11   35   0.046  -0.256   0.235
    1UNL     H1   36   0.196   0.552  -0.155
    1UNL     H2   37   0.038   0.628  -0.204
    1UNL     H3   38   0.184   0.591  -0.322
    1UNL     H4   39  -0.135   0.491  -0.041
    1UNL     H5   40  -0.175   0.337  -0.131
    1UNL     H6   41  -0.248   0.280   0.244
    1UNL     H7   42  -0.315   0.188   0.085
    1UNL     H8   43  -0.316   0.381   0.111
    1UNL     H9   44   0.173   0.370   0.182
    1UNL    H10   45   0.317   0.159   0.091
    1UNL    H11   46   0.189   0.074   0.174
    1UNL    H12   47   0.336  -0.349   0.170
    1UNL    H13   48   0.356  -0.562   0.022
    1UNL    H14   49   0.359  -0.545  -0.219
    1UNL    H15   50   0.326  -0.337  -0.329
    1UNL    H16   51   0.312  -0.123  -0.203
    1UNL    H17   52   0.183   0.221  -0.184
    1UNL    H18   53  -0.004   0.010  -0.127
    1UNL    H19   54  -0.119   0.148  -0.171
    1UNL    H20   55   0.056  -0.093   0.048
    1UNL    H21   56  -0.295  -0.017  -0.032
    1UNL    H22   57  -0.287  -0.170  -0.228
    1UNL    H23   58  -0.295  -0.305  -0.116
    1UNL    H24   59  -0.495  -0.125  -0.075
    1UNL    H25   60  -0.405  -0.223   0.099
    1UNL    H26   61  -0.248  -0.007   0.201
    1UNL    H27   62  -0.233  -0.319   0.262
    1UNL    H28   63  -0.087  -0.346   0.029
    1UNL    H29   64  -0.092  -0.133   0.302
    1UNL    H30   65   0.069  -0.344   0.189
   0.00000   0.00000   0.00000   0.00000   0.00000   0.00000   0.00000   0.00000   0.00000
Generated with MDTraj, t= 11.0
 65
    1UNL     C1    1   0.070   0.581  -0.227
    1UNL     O1    2   0.051   0.448  -0.250
    1UNL     C2    3   0.042   0.372  -0.118
    1UNL     C3    4  -0.105   0.380  -0.068
    1UNL     C4    5  -0.109   0.295   0.061
    1UNL     C5    6  -0.253   0.273   0.107
    1UNL     O2    7  -0.018   0.359   0.156
    1UNL     C6    8   0.111   0.354   0.091
    1UNL     O3    9   0.119   0.439  -0.022
    1UNL     C7   10   0.109   0.203   0.041
    1UNL     C8   11   0.217   0.103   0.088
    1UNL     O4   12   0.232   0.000   0.002
    1UNL     C9   13   0.294  -0.108   0.064
    1UNL     O5   14   0.347  -0.104   0.174
    1UNL    C10   15   0.305  -0.228  -0.016
    1UNL    C11   16   0.334  -0.353   0.046
    1UNL    C12   17   0.353  -0.464  -0.034
    1UNL    C13   18   0.348  -0.457  -0.173
    1UNL    C14   19   0.330  -0.338  -0.229
    1UNL    C15   20   0.311  -0.227  -0.153
    1UNL    C16   21   0.094   0.221  -0.117
    1UNL    C17   22  -0.020   0.115  -0.117
    1UNL    C18   23  -0.040   0.155   0.039
    1UNL     O6   24  -0.069   0.054   0.131
    1UNL    C19   25  -0.043  -0.087   0.097
    1UNL     O7   26  -0.103  -0.126  -0.020
    1UNL    C20   27  -0.249  -0.112  -0.016
    1UNL    C21   28  -0.300  -0.204  -0.134
    1UNL     O8   29  -0.442  -0.205  -0.141
    1UNL    C22   30  -0.314  -0.154   0.114
    1UNL     O9   31  -0.351  -0.041   0.180
    1UNL    C23   32  -0.212  -0.255   0.190
    1UNL    O10   33  -0.194  -0.373   0.114
    1UNL    C24   34  -0.076  -0.189   0.215
    1UNL    O11   35   0.026  -0.285   0.228
    1UNL     H1   36   0.172   0.604  -0.229
    1UNL     H2   37   0.029   0.609  -0.122
    1UNL     H3   38   0.029   0.633  -0.318
    1UNL     H4   39  -0.121   0.491  -0.030
    1UNL     H5   40  -0.172   0.355  -0.141
    1UNL     H6   41  -0.281   0.183   0.170
    1UNL     H7   42  -0.331   0.277   0.019
    1UNL     H8   43  -0.274   0.358   0.183
    1UNL     H9   44   0.186   0.377   0.168
    1UNL    H10   45   0.315   0.153   0.102
    1UNL    H11   46   0.194   0.058   0.183
    1UNL    H12   47   0.334  -0.361   0.148
    1UNL    H13   48   0.353  -0.563   0.009
    1UNL    H14   49   0.363  -0.554  -0.222
    1UNL    H15   50   0.335  -0.325  -0.337
    1UNL    H16   51   0.303  -0.131  -0.199
    1UNL    H17   52   0.184   0.208  -0.190
    1UNL    H18   53   0.013   0.016  -0.146
    1UNL    H19   54  -0.109   0.148  -0.183
    1UNL    H20   55   0.059  -0.093   0.068
    1UNL    H21   56  -0.268  -0.005  -0.029
    1UNL    H22   57  -0.275  -0.163  -0.223
    1UNL    H23   58  -0.272  -0.308  -0.126
    1UNL    H24   59  -0.488  -0.123  -0.108
    1UNL    H25   60  -0.407  -0.202   0.087
    1UNL    H26   61  -0.269   0.012   0.192
    1UNL    H27   62  -0.265  -0.285   0.282
    1UNL    H28   63  -0.166  -0.344   0.026
    1UNL    H29   64  -0.093  -0.130   0.313
    1UNL    H30   65   0.021  -0.346   0.150
   0.00000   0.00000   0.00000   0.00000   0.00000   0.00000   0.00000   0.00000   0.00000
Generated with MDTraj, t= 12.0
 65
    1UNL     C1    1   0.047   0.564  -0.244
    1UNL     O1    2   0.059   0.427  -0.247
    1UNL     C2    3   0.043   0.372  -0.115
    1UNL     C3    4  -0.108   0.377  -0.065
    1UNL     C4    5  -0.117   0.287   0.061
    1UNL     C5    6  -0.257   0.279   0.113
    1UNL     O2    7  -0.029   0.353   0.160
    1UNL     C6    8   0.107   0.350   0.112
    1UNL     O3    9   0.116   0.440  -0.003
    1UNL     C7   10   0.117   0.205   0.044
    1UNL     C8   11   0.230   0.109   0.083
    1UNL     O4   12   0.237   0.004  -0.006
    1UNL     C9   13   0.301  -0.104   0.053
    1UNL     O5   14   0.346  -0.106   0.167
    1UNL    C10   15   0.327  -0.231  -0.024
    1UNL    C11   16   0.346  -0.352   0.035
    1UNL    C12   17   0.358  -0.469  -0.031
    1UNL    C13   18   0.348  -0.467  -0.171
    1UNL    C14   19   0.323  -0.349  -0.233
    1UNL    C15   20   0.314  -0.227  -0.163
    1UNL    C16   21   0.093   0.229  -0.111
    1UNL    C17   22  -0.013   0.112  -0.108
    1UNL    C18   23  -0.035   0.151   0.046
    1UNL     O6   24  -0.078   0.054   0.135
    1UNL    C19   25  -0.046  -0.083   0.092
    1UNL     O7   26  -0.104  -0.124  -0.030
    1UNL    C20   27  -0.251  -0.120  -0.026
    1UNL    C21   28  -0.306  -0.191  -0.150
    1UNL     O8   29  -0.446  -0.169  -0.174
    1UNL    C22   30  -0.313  -0.154   0.113
    1UNL     O9   31  -0.347  -0.033   0.184
    1UNL    C23   32  -0.218  -0.251   0.198
    1UNL    O10   33  -0.190  -0.381   0.145
    1UNL    C24   34  -0.078  -0.183   0.216
    1UNL    O11   35   0.024  -0.281   0.238
    1UNL     H1   36   0.111   0.602  -0.172
    1UNL     H2   37  -0.058   0.583  -0.199
    1UNL     H3   38   0.077   0.597  -0.346
    1UNL     H4   39  -0.135   0.477  -0.042
    1UNL     H5   40  -0.180   0.335  -0.143
    1UNL     H6   41  -0.276   0.323   0.215
    1UNL     H7   42  -0.298   0.173   0.109
    1UNL     H8   43  -0.325   0.348   0.050
    1UNL     H9   44   0.185   0.382   0.182
    1UNL    H10   45   0.327   0.162   0.081
    1UNL    H11   46   0.218   0.070   0.182
    1UNL    H12   47   0.346  -0.364   0.143
    1UNL    H13   48   0.368  -0.564   0.021
    1UNL    H14   49   0.331  -0.554  -0.230
    1UNL    H15   50   0.330  -0.347  -0.342
    1UNL    H16   51   0.298  -0.134  -0.210
    1UNL    H17   52   0.184   0.220  -0.182
    1UNL    H18   53   0.027   0.017  -0.137
    1UNL    H19   54  -0.115   0.115  -0.167
    1UNL    H20   55   0.058  -0.092   0.071
    1UNL    H21   56  -0.272  -0.011  -0.028
    1UNL    H22   57  -0.259  -0.163  -0.235
    1UNL    H23   58  -0.305  -0.299  -0.139
    1UNL    H24   59  -0.463  -0.075  -0.196
    1UNL    H25   60  -0.408  -0.203   0.096
    1UNL    H26   61  -0.260   0.012   0.196
    1UNL    H27   62  -0.254  -0.274   0.300
    1UNL    H28   63  -0.102  -0.384   0.104
    1UNL    H29   64  -0.072  -0.116   0.310
    1UNL    H30   65   0.010  -0.339   0.314
   0.00000   0.00000   0.00000   0.00000   0.00000   0.00000   0.00000   0.00000   0.00000
Generated with MDTraj, t= 13.0
 65
    1UNL     C1    1   0.072   0.566  -0.233
    1UNL     O1    2   0.067   0.426  -0.251
    1UNL     C2    3   0.041   0.366  -0.123
    1UNL     C3    4  -0.114   0.368  -0.074
    1UNL     C4    5  -0.118   0.289   0.063
    1UNL     C5    6  -0.257   0.286   0.125
    1UNL     O2    7  -0.029   0.361   0.152
    1UNL     C6    8   0.108   0.345   0.100
    1UNL     O3    9   0.109   0.434  -0.018
    1UNL     C7   10   0.109   0.195   0.043
    1UNL     C8   11   0.220   0.109   0.083
    1UNL     O4   12   0.222  -0.011   0.006
    1UNL     C9   13   0.306  -0.101   0.059
    1UNL     O5   14   0.361  -0.084   0.167
    1UNL    C10   15   0.320  -0.228  -0.023
    1UNL    C11   16   0.346  -0.343   0.042
    1UNL    C12   17   0.367  -0.458  -0.034
    1UNL    C13   18   0.344  -0.459  -0.164
    1UNL    C14   19   0.313  -0.341  -0.234
    1UNL    C15   20   0.293  -0.223  -0.160
    1UNL    C16   21   0.089   0.218  -0.113
    1UNL    C17   22  -0.022   0.106  -0.117
    1UNL    C18   23  -0.050   0.144   0.032
    1UNL     O6   24  -0.088   0.048   0.133
    1UNL    C19   25  -0.044  -0.089   0.105
    1UNL     O7   26  -0.098  -0.139  -0.013
    1UNL    C20   27  -0.241  -0.114  -0.022
    1UNL    C21   28  -0.300  -0.188  -0.135
    1UNL     O8   29  -0.434  -0.142  -0.163
    1UNL    C22   30  -0.314  -0.163   0.111
    1UNL     O9   31  -0.331  -0.047   0.192
    1UNL    C23   32  -0.214  -0.254   0.193
    1UNL    O10   33  -0.190  -0.366   0.119
    1UNL    C24   34  -0.077  -0.187   0.223
    1UNL    O11   35   0.021  -0.291   0.228
    1UNL     H1   36   0.016   0.592  -0.149
    1UNL     H2   37   0.014   0.618  -0.315
    1UNL     H3   38   0.176   0.593  -0.222
    1UNL     H4   39  -0.144   0.463  -0.060
    1UNL     H5   40  -0.185   0.321  -0.156
    1UNL     H6   41  -0.282   0.205   0.202
    1UNL     H7   42  -0.341   0.279   0.054
    1UNL     H8   43  -0.260   0.382   0.189
    1UNL     H9   44   0.189   0.364   0.169
    1UNL    H10   45   0.317   0.161   0.077
    1UNL    H11   46   0.207   0.084   0.185
    1UNL    H12   47   0.353  -0.344   0.156
    1UNL    H13   48   0.392  -0.549   0.015
    1UNL    H14   49   0.368  -0.546  -0.222
    1UNL    H15   50   0.308  -0.332  -0.339
    1UNL    H16   51   0.291  -0.119  -0.209
    1UNL    H17   52   0.187   0.197  -0.171
    1UNL    H18   53   0.012   0.001  -0.136
    1UNL    H19   54  -0.101   0.124  -0.192
    1UNL    H20   55   0.060  -0.091   0.086
    1UNL    H21   56  -0.261  -0.005  -0.039
    1UNL    H22   57  -0.240  -0.186  -0.218
    1UNL    H23   58  -0.321  -0.289  -0.097
    1UNL    H24   59  -0.428  -0.048  -0.189
    1UNL    H25   60  -0.411  -0.208   0.088
    1UNL    H26   61  -0.239  -0.023   0.215
    1UNL    H27   62  -0.257  -0.287   0.289
    1UNL    H28   63  -0.150  -0.339   0.031
    1UNL    H29   64  -0.080  -0.126   0.319
    1UNL    H30   65  -0.032  -0.371   0.264
   0.00000   0.00000   0.00000   0.00000   0.00000   0.00000   0.00000   0.00000   0.00000
Generated with MDTraj, t= 14.0
 65
    1UNL     C1    1   0.094   0.560  -0.255
    1UNL     O1    2   0.056   0.423  -0.255
    1UNL     C2    3   0.035   0.372  -0.121
    1UNL     C3    4  -0.117   0.368  -0.069
    1UNL     C4    5  -0.121   0.287   0.061
    1UNL     C5    6  -0.268   0.260   0.122
    1UNL     O2    7  -0.031   0.352   0.160
    1UNL     C6    8   0.101   0.348   0.103
    1UNL     O3    9   0.107   0.439  -0.008
    1UNL     C7   10   0.112   0.196   0.036
    1UNL     C8   11   0.216   0.104   0.095
    1UNL     O4   12   0.232  -0.012   0.009
    1UNL     C9   13   0.323  -0.104   0.060
    1UNL     O5   14   0.382  -0.085   0.167
    1UNL    C10   15   0.324  -0.231  -0.017
    1UNL    C11   16   0.369  -0.345   0.046
    1UNL    C12   17   0.373  -0.464  -0.032
    1UNL    C13   18   0.344  -0.464  -0.163
    1UNL    C14   19   0.287  -0.350  -0.226
    1UNL    C15   20   0.287  -0.233  -0.150
    1UNL    C16   21   0.091   0.222  -0.118
    1UNL    C17   22  -0.024   0.112  -0.111
    1UNL    C18   23  -0.042   0.155   0.039
    1UNL     O6   24  -0.071   0.058   0.142
    1UNL    C19   25  -0.044  -0.075   0.098
    1UNL     O7   26  -0.106  -0.113  -0.026
    1UNL    C20   27  -0.249  -0.118  -0.024
    1UNL    C21   28  -0.316  -0.175  -0.150
    1UNL     O8   29  -0.455  -0.147  -0.161
    1UNL    C22   30  -0.306  -0.163   0.115
    1UNL     O9   31  -0.340  -0.056   0.212
    1UNL    C23   32  -0.214  -0.266   0.179
    1UNL    O10   33  -0.179  -0.369   0.088
    1UNL    C24   34  -0.087  -0.180   0.216
    1UNL    O11   35   0.022  -0.271   0.240
    1UNL     H1   36   0.006   0.615  -0.259
    1UNL     H2   37   0.167   0.577  -0.339
    1UNL     H3   38   0.149   0.578  -0.167
    1UNL     H4   39  -0.145   0.475  -0.042
    1UNL     H5   40  -0.187   0.328  -0.141
    1UNL     H6   41  -0.273   0.246   0.234
    1UNL     H7   42  -0.295   0.161   0.083
    1UNL     H8   43  -0.341   0.344   0.103
    1UNL     H9   44   0.168   0.376   0.183
    1UNL    H10   45   0.315   0.154   0.098
    1UNL    H11   46   0.191   0.077   0.194
    1UNL    H12   47   0.381  -0.356   0.146
    1UNL    H13   48   0.409  -0.551   0.026
    1UNL    H14   49   0.365  -0.555  -0.218
    1UNL    H15   50   0.274  -0.352  -0.338
    1UNL    H16   51   0.253  -0.151  -0.198
    1UNL    H17   52   0.175   0.186  -0.190
    1UNL    H18   53   0.020   0.005  -0.131
    1UNL    H19   54  -0.102   0.134  -0.175
    1UNL    H20   55   0.060  -0.087   0.092
    1UNL    H21   56  -0.281  -0.011  -0.034
    1UNL    H22   57  -0.273  -0.123  -0.229
    1UNL    H23   58  -0.293  -0.283  -0.150
    1UNL    H24   59  -0.479  -0.079  -0.094
    1UNL    H25   60  -0.401  -0.214   0.094
    1UNL    H26   61  -0.255  -0.011   0.228
    1UNL    H27   62  -0.261  -0.314   0.266
    1UNL    H28   63  -0.131  -0.329   0.013
    1UNL    H29   64  -0.100  -0.116   0.306
    1UNL    H30   65   0.031  -0.318   0.155
   0.00000   0.00000   0.00000   0.00000   0.00000   0.00000   0.00000   0.00000   0.00000
Generated with MDTraj, t= 15.0
 65
    1UNL     C1    1   0.078   0.561  -0.236
    1UNL     O1    2   0.067   0.420  -0.249
    1UNL     C2    3   0.043   0.368  -0.116
    1UNL     C3    4  -0.102   0.373  -0.073
    1UNL     C4    5  -0.108   0.295   0.061
    1UNL     C5    6  -0.257   0.295   0.102
    1UNL     O2    7  -0.024   0.360   0.160
    1UNL     C6    8   0.106   0.346   0.107
    1UNL     O3    9   0.120   0.430  -0.010
    1UNL     C7   10   0.111   0.198   0.048
    1UNL     C8   11   0.219   0.110   0.093
    1UNL     O4   12   0.228   0.001   0.000
    1UNL     C9   13   0.315  -0.090   0.055
    1UNL     O5   14   0.375  -0.078   0.160
    1UNL    C10   15   0.327  -0.217  -0.021
    1UNL    C11   16   0.384  -0.326   0.041
    1UNL    C12   17   0.394  -0.452  -0.017
    1UNL    C13   18   0.338  -0.469  -0.143
    1UNL    C14   19   0.269  -0.366  -0.204
    1UNL    C15   20   0.264  -0.239  -0.143
    1UNL    C16   21   0.091   0.218  -0.107
    1UNL    C17   22  -0.022   0.113  -0.101
    1UNL    C18   23  -0.039   0.151   0.042
    1UNL     O6   24  -0.075   0.047   0.135
    1UNL    C19   25  -0.047  -0.083   0.090
    1UNL     O7   26  -0.115  -0.127  -0.025
    1UNL    C20   27  -0.259  -0.118  -0.028
    1UNL    C21   28  -0.341  -0.181  -0.146
    1UNL     O8   29  -0.474  -0.134  -0.148
    1UNL    C22   30  -0.309  -0.185   0.105
    1UNL     O9   31  -0.344  -0.081   0.194
    1UNL    C23   32  -0.201  -0.266   0.169
    1UNL    O10   33  -0.172  -0.375   0.086
    1UNL    C24   34  -0.081  -0.180   0.202
    1UNL    O11   35   0.034  -0.270   0.225
    1UNL     H1   36   0.005   0.587  -0.166
    1UNL     H2   37   0.080   0.602  -0.342
    1UNL     H3   38   0.179   0.583  -0.207
    1UNL     H4   39  -0.124   0.486  -0.042
    1UNL     H5   40  -0.157   0.346  -0.155
    1UNL     H6   41  -0.266   0.228   0.186
    1UNL     H7   42  -0.325   0.253   0.021
    1UNL     H8   43  -0.276   0.395   0.141
    1UNL     H9   44   0.176   0.382   0.181
    1UNL    H10   45   0.317   0.164   0.095
    1UNL    H11   46   0.194   0.073   0.189
    1UNL    H12   47   0.424  -0.309   0.148
    1UNL    H13   48   0.413  -0.531   0.051
    1UNL    H14   49   0.349  -0.568  -0.191
    1UNL    H15   50   0.215  -0.391  -0.288
    1UNL    H16   51   0.209  -0.150  -0.189
    1UNL    H17   52   0.193   0.183  -0.148
    1UNL    H18   53   0.014   0.008  -0.112
    1UNL    H19   54  -0.104   0.131  -0.168
    1UNL    H20   55   0.057  -0.102   0.073
    1UNL    H21   56  -0.287  -0.010  -0.022
    1UNL    H22   57  -0.290  -0.144  -0.232
    1UNL    H23   58  -0.340  -0.292  -0.134
    1UNL    H24   59  -0.533  -0.173  -0.078
    1UNL    H25   60  -0.395  -0.255   0.103
    1UNL    H26   61  -0.262  -0.025   0.199
    1UNL    H27   62  -0.238  -0.311   0.262
    1UNL    H28   63  -0.151  -0.345  -0.007
    1UNL    H29   64  -0.092  -0.120   0.293
    1UNL    H30   65   0.022  -0.345   0.164
   0.00000   0.00000   0.00000   0.00000   0.00000   0.00000   0.00000   0.00000   0.00000
Generated with MDTraj, t= 16.0
 65
    1UNL     C1    1   0.095   0.585  -0.219
    1UNL     O1    2   0.064   0.445  -0.240
    1UNL     C2    3   0.037   0.382  -0.118
    1UNL     C3    4  -0.105   0.384  -0.075
    1UNL     C4    5  -0.119   0.295   0.058
    1UNL     C5    6  -0.259   0.292   0.108
    1UNL     O2    7  -0.027   0.356   0.155
    1UNL     C6    8   0.103   0.345   0.101
    1UNL     O3    9   0.116   0.437  -0.009
    1UNL     C7   10   0.109   0.202   0.029
    1UNL     C8   11   0.212   0.107   0.082
    1UNL     O4   12   0.216  -0.021   0.014
    1UNL     C9   13   0.312  -0.096   0.070
    1UNL     O5   14   0.391  -0.069   0.158
    1UNL    C10   15   0.326  -0.235  -0.000
    1UNL    C11   16   0.410  -0.339   0.041
    1UNL    C12   17   0.414  -0.460  -0.019
    1UNL    C13   18   0.337  -0.483  -0.136
    1UNL    C14   19   0.249  -0.381  -0.175
    1UNL    C15   20   0.242  -0.260  -0.110
    1UNL    C16   21   0.089   0.228  -0.121
    1UNL    C17   22  -0.021   0.128  -0.122
    1UNL    C18   23  -0.044   0.158   0.032
    1UNL     O6   24  -0.088   0.050   0.113
    1UNL    C19   25  -0.046  -0.080   0.080
    1UNL     O7   26  -0.117  -0.132  -0.039
    1UNL    C20   27  -0.259  -0.118  -0.022
    1UNL    C21   28  -0.336  -0.176  -0.145
    1UNL     O8   29  -0.473  -0.141  -0.147
    1UNL    C22   30  -0.308  -0.182   0.119
    1UNL     O9   31  -0.349  -0.091   0.219
    1UNL    C23   32  -0.199  -0.270   0.179
    1UNL    O10   33  -0.173  -0.375   0.089
    1UNL    C24   34  -0.063  -0.182   0.196
    1UNL    O11   35   0.053  -0.269   0.182
    1UNL     H1   36   0.009   0.629  -0.173
    1UNL     H2   37   0.139   0.627  -0.319
    1UNL     H3   38   0.181   0.597  -0.155
    1UNL     H4   39  -0.125   0.489  -0.049
    1UNL     H5   40  -0.174   0.351  -0.153
    1UNL     H6   41  -0.256   0.231   0.197
    1UNL     H7   42  -0.322   0.235   0.035
    1UNL     H8   43  -0.291   0.392   0.138
    1UNL     H9   44   0.175   0.373   0.179
    1UNL    H10   45   0.312   0.159   0.067
    1UNL    H11   46   0.190   0.096   0.187
    1UNL    H12   47   0.459  -0.317   0.126
    1UNL    H13   48   0.474  -0.544   0.014
    1UNL    H14   49   0.325  -0.580  -0.173
    1UNL    H15   50   0.177  -0.388  -0.263
    1UNL    H16   51   0.183  -0.182  -0.144
    1UNL    H17   52   0.185   0.205  -0.180
    1UNL    H18   53   0.007   0.031  -0.138
    1UNL    H19   54  -0.112   0.148  -0.188
    1UNL    H20   55   0.053  -0.076   0.042
    1UNL    H21   56  -0.283  -0.008  -0.017
    1UNL    H22   57  -0.295  -0.139  -0.241
    1UNL    H23   58  -0.328  -0.286  -0.140
    1UNL    H24   59  -0.497  -0.051  -0.180
    1UNL    H25   60  -0.399  -0.246   0.099
    1UNL    H26   61  -0.270  -0.046   0.254
    1UNL    H27   62  -0.239  -0.313   0.272
    1UNL    H28   63  -0.135  -0.334   0.008
    1UNL    H29   64  -0.064  -0.133   0.290
    1UNL    H30   65   0.020  -0.364   0.157
   0.00000   0.00000   0.00000   0.00000   0.00000   0.00000   0.00000   0.00000   0.00000
Generated with MDTraj, t= 17.0
 65
    1UNL     C1    1   0.102   0.583  -0.218
    1UNL     O1    2   0.071   0.449  -0.232
    1UNL     C2    3   0.042   0.387  -0.105
    1UNL     C3    4  -0.106   0.388  -0.064
    1UNL     C4    5  -0.122   0.292   0.059
    1UNL     C5    6  -0.264   0.267   0.105
    1UNL     O2    7  -0.036   0.343   0.163
    1UNL     C6    8   0.103   0.344   0.113
    1UNL     O3    9   0.114   0.444   0.005
    1UNL     C7   10   0.105   0.206   0.036
    1UNL     C8   11   0.212   0.107   0.081
    1UNL     O4   12   0.230  -0.005  -0.012
    1UNL     C9   13   0.313  -0.098   0.049
    1UNL     O5   14   0.375  -0.064   0.147
    1UNL    C10   15   0.317  -0.234  -0.001
    1UNL    C11   16   0.426  -0.318   0.035
    1UNL    C12   17   0.434  -0.447  -0.011
    1UNL    C13   18   0.330  -0.494  -0.098
    1UNL    C14   19   0.226  -0.414  -0.145
    1UNL    C15   20   0.218  -0.287  -0.090
    1UNL    C16   21   0.102   0.237  -0.116
    1UNL    C17   22  -0.012   0.135  -0.123
    1UNL    C18   23  -0.050   0.152   0.024
    1UNL     O6   24  -0.083   0.048   0.110
    1UNL    C19   25  -0.050  -0.082   0.068
    1UNL     O7   26  -0.122  -0.139  -0.053
    1UNL    C20   27  -0.268  -0.121  -0.033
    1UNL    C21   28  -0.354  -0.179  -0.148
    1UNL     O8   29  -0.495  -0.162  -0.127
    1UNL    C22   30  -0.303  -0.165   0.117
    1UNL     O9   31  -0.309  -0.059   0.212
    1UNL    C23   32  -0.193  -0.271   0.160
    1UNL    O10   33  -0.174  -0.370   0.064
    1UNL    C24   34  -0.061  -0.185   0.180
    1UNL    O11   35   0.053  -0.261   0.174
    1UNL     H1   36   0.026   0.633  -0.162
    1UNL     H2   37   0.119   0.623  -0.326
    1UNL     H3   38   0.199   0.596  -0.168
    1UNL     H4   39  -0.135   0.476  -0.027
    1UNL     H5   40  -0.172   0.357  -0.153
    1UNL     H6   41  -0.263   0.211   0.197
    1UNL     H7   42  -0.320   0.208   0.037
    1UNL     H8   43  -0.313   0.359   0.134
    1UNL     H9   44   0.175   0.355   0.196
    1UNL    H10   45   0.310   0.165   0.082
    1UNL    H11   46   0.189   0.063   0.179
    1UNL    H12   47   0.502  -0.267   0.100
    1UNL    H13   48   0.520  -0.513   0.003
    1UNL    H14   49   0.332  -0.600  -0.142
    1UNL    H15   50   0.169  -0.451  -0.222
    1UNL    H16   51   0.141  -0.221  -0.130
    1UNL    H17   52   0.198   0.219  -0.177
    1UNL    H18   53   0.025   0.039  -0.138
    1UNL    H19   54  -0.099   0.161  -0.188
    1UNL    H20   55   0.055  -0.080   0.033
    1UNL    H21   56  -0.266  -0.010  -0.039
    1UNL    H22   57  -0.324  -0.139  -0.251
    1UNL    H23   58  -0.336  -0.287  -0.148
    1UNL    H24   59  -0.509  -0.085  -0.070
    1UNL    H25   60  -0.403  -0.217   0.117
    1UNL    H26   61  -0.221  -0.015   0.203
    1UNL    H27   62  -0.223  -0.325   0.251
    1UNL    H28   63  -0.115  -0.334  -0.006
    1UNL    H29   64  -0.050  -0.133   0.271
    1UNL    H30   65   0.052  -0.335   0.234
   0.00000   0.00000   0.00000   0.00000   0.00000   0.00000   0.00000   0.00000   0.00000
Generated with MDTraj, t= 18.0
 65
    1UNL     C1    1   0.097   0.607  -0.186
    1UNL     O1    2   0.075   0.478  -0.231
    1UNL     C2    3   0.045   0.390  -0.118
    1UNL     C3    4  -0.103   0.393  -0.070
    1UNL     C4    5  -0.115   0.293   0.051
    1UNL     C5    6  -0.254   0.279   0.096
    1UNL     O2    7  -0.036   0.359   0.156
    1UNL     C6    8   0.103   0.342   0.107
    1UNL     O3    9   0.116   0.441  -0.001
    1UNL     C7   10   0.110   0.208   0.024
    1UNL     C8   11   0.220   0.113   0.077
    1UNL     O4   12   0.231  -0.013   0.002
    1UNL     C9   13   0.324  -0.096   0.049
    1UNL     O5   14   0.390  -0.065   0.146
    1UNL    C10   15   0.320  -0.234  -0.007
    1UNL    C11   16   0.439  -0.311   0.018
    1UNL    C12   17   0.443  -0.447  -0.016
    1UNL    C13   18   0.326  -0.501  -0.070
    1UNL    C14   19   0.216  -0.422  -0.109
    1UNL    C15   20   0.214  -0.293  -0.075
    1UNL    C16   21   0.091   0.239  -0.128
    1UNL    C17   22  -0.015   0.128  -0.123
    1UNL    C18   23  -0.038   0.154   0.025
    1UNL     O6   24  -0.071   0.050   0.116
    1UNL    C19   25  -0.049  -0.079   0.070
    1UNL     O7   26  -0.129  -0.113  -0.048
    1UNL    C20   27  -0.271  -0.109  -0.024
    1UNL    C21   28  -0.350  -0.181  -0.129
    1UNL     O8   29  -0.490  -0.198  -0.102
    1UNL    C22   30  -0.312  -0.173   0.106
    1UNL     O9   31  -0.327  -0.073   0.200
    1UNL    C23   32  -0.199  -0.273   0.154
    1UNL    O10   33  -0.184  -0.378   0.068
    1UNL    C24   34  -0.061  -0.197   0.166
    1UNL    O11   35   0.037  -0.286   0.134
    1UNL     H1   36   0.013   0.642  -0.130
    1UNL     H2   37   0.095   0.675  -0.281
    1UNL     H3   38   0.186   0.601  -0.118
    1UNL     H4   39  -0.137   0.492  -0.036
    1UNL     H5   40  -0.173   0.360  -0.152
    1UNL     H6   41  -0.274   0.231   0.191
    1UNL     H7   42  -0.298   0.221   0.023
    1UNL     H8   43  -0.305   0.372   0.100
    1UNL     H9   44   0.183   0.353   0.183
    1UNL    H10   45   0.324   0.161   0.076
    1UNL    H11   46   0.189   0.090   0.181
    1UNL    H12   47   0.525  -0.257   0.064
    1UNL    H13   48   0.528  -0.505   0.013
    1UNL    H14   49   0.332  -0.595  -0.107
    1UNL    H15   50   0.134  -0.471  -0.170
    1UNL    H16   51   0.119  -0.239  -0.092
    1UNL    H17   52   0.187   0.220  -0.185
    1UNL    H18   53   0.029   0.027  -0.144
    1UNL    H19   54  -0.101   0.152  -0.172
    1UNL    H20   55   0.058  -0.082   0.029
    1UNL    H21   56  -0.294  -0.000  -0.025
    1UNL    H22   57  -0.343  -0.130  -0.234
    1UNL    H23   58  -0.319  -0.285  -0.145
    1UNL    H24   59  -0.525  -0.114  -0.067
    1UNL    H25   60  -0.416  -0.214   0.095
    1UNL    H26   61  -0.242  -0.024   0.202
    1UNL    H27   62  -0.237  -0.309   0.251
    1UNL    H28   63  -0.130  -0.348  -0.011
    1UNL    H29   64  -0.041  -0.167   0.264
    1UNL    H30   65  -0.000  -0.373   0.141
   0.00000   0.00000   0.00000   0.00000   0.00000   0.00000   0.00000   0.00000   0.00000
Generated with MDTraj, t= 19.0
 65
    1UNL     C1    1   0.077   0.594  -0.226
    1UNL     O1    2   0.077   0.454  -0.227
    1UNL     C2    3   0.055   0.394  -0.101
    1UNL     C3    4  -0.097   0.397  -0.055
    1UNL     C4    5  -0.116   0.297   0.068
    1UNL     C5    6  -0.260   0.293   0.112
    1UNL     O2    7  -0.023   0.337   0.167
    1UNL     C6    8   0.111   0.334   0.113
    1UNL     O3    9   0.123   0.441   0.020
    1UNL     C7   10   0.107   0.200   0.031
    1UNL     C8   11   0.216   0.104   0.081
    1UNL     O4   12   0.222  -0.020   0.015
    1UNL     C9   13   0.328  -0.087   0.051
    1UNL     O5   14   0.421  -0.056   0.123
    1UNL    C10   15   0.328  -0.233  -0.002
    1UNL    C11   16   0.440  -0.310   0.029
    1UNL    C12   17   0.450  -0.446  -0.012
    1UNL    C13   18   0.345  -0.495  -0.084
    1UNL    C14   19   0.232  -0.420  -0.114
    1UNL    C15   20   0.223  -0.288  -0.073
    1UNL    C16   21   0.100   0.242  -0.116
    1UNL    C17   22  -0.019   0.142  -0.128
    1UNL    C18   23  -0.045   0.158   0.019
    1UNL     O6   24  -0.079   0.043   0.101
    1UNL    C19   25  -0.058  -0.083   0.040
    1UNL     O7   26  -0.150  -0.113  -0.074
    1UNL    C20   27  -0.287  -0.121  -0.030
    1UNL    C21   28  -0.366  -0.208  -0.132
    1UNL     O8   29  -0.504  -0.191  -0.127
    1UNL    C22   30  -0.312  -0.157   0.117
    1UNL     O9   31  -0.327  -0.047   0.208
    1UNL    C23   32  -0.202  -0.265   0.159
    1UNL    O10   33  -0.192  -0.381   0.079
    1UNL    C24   34  -0.065  -0.191   0.154
    1UNL    O11   35   0.041  -0.280   0.150
    1UNL     H1   36  -0.022   0.636  -0.208
    1UNL     H2   37   0.087   0.638  -0.332
    1UNL     H3   38   0.140   0.626  -0.141
    1UNL     H4   39  -0.114   0.512  -0.019
    1UNL     H5   40  -0.170   0.381  -0.132
    1UNL     H6   41  -0.261   0.222   0.186
    1UNL     H7   42  -0.321   0.258   0.031
    1UNL     H8   43  -0.297   0.379   0.154
    1UNL     H9   44   0.197   0.337   0.186
    1UNL    H10   45   0.315   0.155   0.051
    1UNL    H11   46   0.214   0.084   0.191
    1UNL    H12   47   0.506  -0.268   0.090
    1UNL    H13   48   0.535  -0.511   0.007
    1UNL    H14   49   0.338  -0.607  -0.107
    1UNL    H15   50   0.153  -0.466  -0.167
    1UNL    H16   51   0.140  -0.232  -0.093
    1UNL    H17   52   0.200   0.217  -0.165
    1UNL    H18   53   0.019   0.046  -0.170
    1UNL    H19   54  -0.089   0.186  -0.186
    1UNL    H20   55   0.047  -0.085  -0.003
    1UNL    H21   56  -0.329  -0.020  -0.042
    1UNL    H22   57  -0.335  -0.185  -0.245
    1UNL    H23   58  -0.348  -0.317  -0.127
    1UNL    H24   59  -0.524  -0.105  -0.172
    1UNL    H25   60  -0.411  -0.207   0.114
    1UNL    H26   61  -0.243   0.004   0.214
    1UNL    H27   62  -0.223  -0.303   0.260
    1UNL    H28   63  -0.136  -0.370   0.001
    1UNL    H29   64  -0.045  -0.140   0.245
    1UNL    H30   65   0.017  -0.355   0.213
   0.00000   0.00000   0.00000   0.00000   0.00000   0.00000   0.00000   0.00000   0.00000
Generated with MDTraj, t= 20.0
 65
    1UNL     C1    1   0.068   0.595  -0.197
    1UNL     O1    2   0.080   0.456  -0.226
    1UNL     C2    3   0.055   0.381  -0.113
    1UNL     C3    4  -0.093   0.381  -0.070
    1UNL     C4    5  -0.109   0.292   0.059
    1UNL     C5    6  -0.256   0.300   0.112
    1UNL     O2    7  -0.021   0.358   0.155
    1UNL     C6    8   0.109   0.339   0.108
    1UNL     O3    9   0.128   0.431   0.004
    1UNL     C7   10   0.111   0.196   0.039
    1UNL     C8   11   0.210   0.093   0.093
    1UNL     O4   12   0.213  -0.017   0.010
    1UNL     C9   13   0.328  -0.090   0.037
    1UNL     O5   14   0.425  -0.048   0.100
    1UNL    C10   15   0.347  -0.228  -0.014
    1UNL    C11   16   0.446  -0.313   0.038
    1UNL    C12   17   0.457  -0.444  -0.006
    1UNL    C13   18   0.369  -0.494  -0.100
    1UNL    C14   19   0.262  -0.423  -0.145
    1UNL    C15   20   0.252  -0.289  -0.102
    1UNL    C16   21   0.102   0.225  -0.117
    1UNL    C17   22  -0.015   0.129  -0.118
    1UNL    C18   23  -0.040   0.154   0.028
    1UNL     O6   24  -0.093   0.046   0.107
    1UNL    C19   25  -0.070  -0.085   0.065
    1UNL     O7   26  -0.152  -0.121  -0.045
    1UNL    C20   27  -0.291  -0.109  -0.021
    1UNL    C21   28  -0.354  -0.192  -0.137
    1UNL     O8   29  -0.494  -0.181  -0.138
    1UNL    C22   30  -0.335  -0.164   0.116
    1UNL     O9   31  -0.349  -0.056   0.201
    1UNL    C23   32  -0.217  -0.257   0.174
    1UNL    O10   33  -0.201  -0.365   0.088
    1UNL    C24   34  -0.081  -0.186   0.182
    1UNL    O11   35   0.022  -0.286   0.163
    1UNL     H1   36  -0.028   0.639  -0.214
    1UNL     H2   37   0.123   0.658  -0.273
    1UNL     H3   38   0.096   0.607  -0.095
    1UNL     H4   39  -0.130   0.481  -0.045
    1UNL     H5   40  -0.164   0.347  -0.149
    1UNL     H6   41  -0.260   0.238   0.194
    1UNL     H7   42  -0.325   0.273   0.036
    1UNL     H8   43  -0.272   0.395   0.144
    1UNL     H9   44   0.182   0.352   0.193
    1UNL    H10   45   0.321   0.125   0.098
    1UNL    H11   46   0.170   0.053   0.189
    1UNL    H12   47   0.533  -0.275   0.107
    1UNL    H13   48   0.532  -0.505   0.042
    1UNL    H14   49   0.365  -0.598  -0.127
    1UNL    H15   50   0.178  -0.464  -0.202
    1UNL    H16   51   0.171  -0.227  -0.152
    1UNL    H17   52   0.195   0.200  -0.177
    1UNL    H18   53   0.011   0.029  -0.136
    1UNL    H19   54  -0.091   0.172  -0.183
    1UNL    H20   55   0.035  -0.096   0.033
    1UNL    H21   56  -0.319  -0.004  -0.029
    1UNL    H22   57  -0.297  -0.181  -0.242
    1UNL    H23   58  -0.330  -0.298  -0.112
    1UNL    H24   59  -0.517  -0.087  -0.158
    1UNL    H25   60  -0.425  -0.226   0.126
    1UNL    H26   61  -0.272   0.007   0.193
    1UNL    H27   62  -0.231  -0.289   0.280
    1UNL    H28   63  -0.162  -0.328   0.004
    1UNL    H29   64  -0.063  -0.130   0.273
    1UNL    H30   65  -0.022  -0.380   0.159
   0.00000   0.00000   0.00000   0.00000   0.00000   0.00000   0.00000   0.00000   0.00000
Generated with MDTraj, t= 21.0
 65
    1UNL     C1    1   0.107   0.574  -0.221
    1UNL     O1    2   0.083   0.437  -0.239
    1UNL     C2    3   0.047   0.378  -0.108
    1UNL     C3    4  -0.098   0.382  -0.066
    1UNL     C4    5  -0.115   0.294   0.056
    1UNL     C5    6  -0.262   0.266   0.098
    1UNL     O2    7  -0.029   0.350   0.165
    1UNL     C6    8   0.101   0.335   0.115
    1UNL     O3    9   0.127   0.428   0.005
    1UNL     C7   10   0.098   0.193   0.042
    1UNL     C8   11   0.216   0.099   0.071
    1UNL     O4   12   0.221  -0.023  -0.002
    1UNL     C9   13   0.337  -0.091   0.032
    1UNL     O5   14   0.417  -0.038   0.110
    1UNL    C10   15   0.350  -0.231  -0.015
    1UNL    C11   16   0.449  -0.312   0.035
    1UNL    C12   17   0.463  -0.442  -0.018
    1UNL    C13   18   0.382  -0.488  -0.119
    1UNL    C14   19   0.282  -0.406  -0.165
    1UNL    C15   20   0.273  -0.274  -0.119
    1UNL    C16   21   0.083   0.225  -0.109
    1UNL    C17   22  -0.029   0.119  -0.113
    1UNL    C18   23  -0.046   0.147   0.038
    1UNL     O6   24  -0.095   0.049   0.128
    1UNL    C19   25  -0.063  -0.084   0.080
    1UNL     O7   26  -0.139  -0.124  -0.041
    1UNL    C20   27  -0.278  -0.109  -0.021
    1UNL    C21   28  -0.350  -0.158  -0.151
    1UNL     O8   29  -0.484  -0.158  -0.118
    1UNL    C22   30  -0.338  -0.162   0.113
    1UNL     O9   31  -0.355  -0.044   0.189
    1UNL    C23   32  -0.236  -0.267   0.176
    1UNL    O10   33  -0.205  -0.371   0.082
    1UNL    C24   34  -0.102  -0.186   0.202
    1UNL    O11   35   0.000  -0.284   0.218
    1UNL     H1   36   0.022   0.629  -0.190
    1UNL     H2   37   0.123   0.618  -0.321
    1UNL     H3   38   0.190   0.590  -0.157
    1UNL     H4   39  -0.123   0.475  -0.042
    1UNL     H5   40  -0.164   0.348  -0.153
    1UNL     H6   41  -0.262   0.227   0.196
    1UNL     H7   42  -0.295   0.199   0.030
    1UNL     H8   43  -0.322   0.350   0.091
    1UNL     H9   44   0.176   0.336   0.199
    1UNL    H10   45   0.311   0.155   0.042
    1UNL    H11   46   0.218   0.060   0.173
    1UNL    H12   47   0.521  -0.282   0.106
    1UNL    H13   48   0.539  -0.515   0.011
    1UNL    H14   49   0.400  -0.585  -0.154
    1UNL    H15   50   0.219  -0.440  -0.251
    1UNL    H16   51   0.201  -0.210  -0.158
    1UNL    H17   52   0.182   0.204  -0.158
    1UNL    H18   53  -0.006   0.022  -0.126
    1UNL    H19   54  -0.123   0.151  -0.166
    1UNL    H20   55   0.045  -0.097   0.066
    1UNL    H21   56  -0.305  -0.003  -0.024
    1UNL    H22   57  -0.324  -0.077  -0.235
    1UNL    H23   58  -0.308  -0.253  -0.194
    1UNL    H24   59  -0.519  -0.070  -0.092
    1UNL    H25   60  -0.432  -0.213   0.096
    1UNL    H26   61  -0.270   0.002   0.195
    1UNL    H27   62  -0.281  -0.304   0.269
    1UNL    H28   63  -0.168  -0.334  -0.002
    1UNL    H29   64  -0.122  -0.123   0.289
    1UNL    H30   65  -0.008  -0.344   0.147
   0.00000   0.00000   0.00000   0.00000   0.00000   0.00000   0.00000   0.00000   0.00000
Generated with MDTraj, t= 22.0
 65
    1UNL     C1    1   0.131   0.544  -0.230
    1UNL     O1    2   0.061   0.422  -0.243
    1UNL     C2    3   0.036   0.361  -0.117
    1UNL     C3    4  -0.111   0.366  -0.071
    1UNL     C4    5  -0.122   0.283   0.065
    1UNL     C5    6  -0.269   0.272   0.114
    1UNL     O2    7  -0.035   0.352   0.158
    1UNL     C6    8   0.102   0.337   0.104
    1UNL     O3    9   0.114   0.424  -0.011
    1UNL     C7   10   0.104   0.195   0.047
    1UNL     C8   11   0.206   0.088   0.100
    1UNL     O4   12   0.221  -0.029   0.018
    1UNL     C9   13   0.334  -0.093   0.048
    1UNL     O5   14   0.405  -0.047   0.136
    1UNL    C10   15   0.354  -0.227  -0.023
    1UNL    C11   16   0.453  -0.314   0.018
    1UNL    C12   17   0.471  -0.432  -0.043
    1UNL    C13   18   0.382  -0.470  -0.137
    1UNL    C14   19   0.293  -0.380  -0.186
    1UNL    C15   20   0.273  -0.257  -0.129
    1UNL    C16   21   0.089   0.206  -0.115
    1UNL    C17   22  -0.026   0.103  -0.112
    1UNL    C18   23  -0.048   0.147   0.039
    1UNL     O6   24  -0.083   0.046   0.127
    1UNL    C19   25  -0.069  -0.087   0.087
    1UNL     O7   26  -0.135  -0.123  -0.030
    1UNL    C20   27  -0.273  -0.102  -0.020
    1UNL    C21   28  -0.344  -0.155  -0.145
    1UNL     O8   29  -0.475  -0.109  -0.153
    1UNL    C22   30  -0.336  -0.162   0.112
    1UNL     O9   31  -0.352  -0.043   0.197
    1UNL    C23   32  -0.235  -0.263   0.178
    1UNL    O10   33  -0.202  -0.372   0.092
    1UNL    C24   34  -0.107  -0.184   0.203
    1UNL    O11   35   0.003  -0.273   0.235
    1UNL     H1   36   0.088   0.610  -0.158
    1UNL     H2   37   0.128   0.602  -0.325
    1UNL     H3   38   0.235   0.530  -0.214
    1UNL     H4   39  -0.145   0.468  -0.048
    1UNL     H5   40  -0.175   0.331  -0.151
    1UNL     H6   41  -0.279   0.206   0.192
    1UNL     H7   42  -0.335   0.248   0.038
    1UNL     H8   43  -0.298   0.364   0.152
    1UNL     H9   44   0.186   0.371   0.171
    1UNL    H10   45   0.312   0.126   0.096
    1UNL    H11   46   0.178   0.052   0.198
    1UNL    H12   47   0.518  -0.288   0.097
    1UNL    H13   48   0.552  -0.490  -0.004
    1UNL    H14   49   0.400  -0.571  -0.191
    1UNL    H15   50   0.226  -0.403  -0.259
    1UNL    H16   51   0.199  -0.179  -0.156
    1UNL    H17   52   0.175   0.174  -0.182
    1UNL    H18   53   0.003  -0.002  -0.115
    1UNL    H19   54  -0.109   0.120  -0.176
    1UNL    H20   55   0.038  -0.108   0.073
    1UNL    H21   56  -0.289   0.005  -0.005
    1UNL    H22   57  -0.282  -0.135  -0.244
    1UNL    H23   58  -0.344  -0.265  -0.132
    1UNL    H24   59  -0.478  -0.012  -0.150
    1UNL    H25   60  -0.432  -0.205   0.091
    1UNL    H26   61  -0.269   0.008   0.215
    1UNL    H27   62  -0.265  -0.305   0.275
    1UNL    H28   63  -0.170  -0.343   0.004
    1UNL    H29   64  -0.117  -0.116   0.291
    1UNL    H30   65  -0.006  -0.368   0.193
   0.00000   0.00000   0.00000   0.00000   0.00000   0.00000   0.00000   0.00000   0.00000
Generated with MDTraj, t= 23.0
 65
    1UNL     C1    1   0.142   0.517  -0.249
    1UNL     O1    2   0.053   0.410  -0.258
    1UNL     C2    3   0.040   0.357  -0.124
    1UNL     C3    4  -0.112   0.357  -0.075
    1UNL     C4    5  -0.128   0.284   0.060
    1UNL     C5    6  -0.264   0.299   0.114
    1UNL     O2    7  -0.037   0.352   0.153
    1UNL     C6    8   0.099   0.344   0.101
    1UNL     O3    9   0.114   0.421  -0.019
    1UNL     C7   10   0.100   0.193   0.052
    1UNL     C8   11   0.216   0.103   0.101
    1UNL     O4   12   0.218  -0.010   0.019
    1UNL     C9   13   0.322  -0.097   0.062
    1UNL     O5   14   0.400  -0.074   0.157
    1UNL    C10   15   0.339  -0.227  -0.011
    1UNL    C11   16   0.443  -0.309   0.018
    1UNL    C12   17   0.474  -0.412  -0.060
    1UNL    C13   18   0.399  -0.437  -0.174
    1UNL    C14   19   0.289  -0.359  -0.205
    1UNL    C15   20   0.258  -0.254  -0.121
    1UNL    C16   21   0.089   0.206  -0.105
    1UNL    C17   22  -0.024   0.098  -0.108
    1UNL    C18   23  -0.053   0.140   0.043
    1UNL     O6   24  -0.091   0.038   0.142
    1UNL    C19   25  -0.061  -0.094   0.100
    1UNL     O7   26  -0.128  -0.136  -0.022
    1UNL    C20   27  -0.268  -0.102  -0.013
    1UNL    C21   28  -0.339  -0.165  -0.127
    1UNL     O8   29  -0.439  -0.088  -0.174
    1UNL    C22   30  -0.337  -0.155   0.117
    1UNL     O9   31  -0.363  -0.050   0.213
    1UNL    C23   32  -0.241  -0.263   0.182
    1UNL    O10   33  -0.213  -0.367   0.095
    1UNL    C24   34  -0.100  -0.193   0.209
    1UNL    O11   35   0.001  -0.291   0.222
    1UNL     H1   36   0.094   0.611  -0.222
    1UNL     H2   37   0.208   0.536  -0.340
    1UNL     H3   38   0.227   0.495  -0.186
    1UNL     H4   39  -0.142   0.470  -0.058
    1UNL     H5   40  -0.179   0.324  -0.145
    1UNL     H6   41  -0.275   0.242   0.198
    1UNL     H7   42  -0.334   0.263   0.040
    1UNL     H8   43  -0.291   0.395   0.135
    1UNL     H9   44   0.178   0.368   0.176
    1UNL    H10   45   0.313   0.155   0.088
    1UNL    H11   46   0.199   0.056   0.195
    1UNL    H12   47   0.510  -0.281   0.109
    1UNL    H13   48   0.564  -0.473  -0.048
    1UNL    H14   49   0.414  -0.521  -0.228
    1UNL    H15   50   0.231  -0.395  -0.297
    1UNL    H16   51   0.177  -0.188  -0.137
    1UNL    H17   52   0.180   0.177  -0.162
    1UNL    H18   53   0.018  -0.009  -0.118
    1UNL    H19   54  -0.105   0.113  -0.168
    1UNL    H20   55   0.046  -0.093   0.079
    1UNL    H21   56  -0.269   0.009  -0.010
    1UNL    H22   57  -0.262  -0.178  -0.212
    1UNL    H23   58  -0.384  -0.265  -0.112
    1UNL    H24   59  -0.417   0.008  -0.165
    1UNL    H25   60  -0.427  -0.199   0.076
    1UNL    H26   61  -0.281   0.001   0.219
    1UNL    H27   62  -0.286  -0.302   0.273
    1UNL    H28   63  -0.168  -0.327   0.016
    1UNL    H29   64  -0.117  -0.128   0.301
    1UNL    H30   65  -0.025  -0.382   0.213
   0.00000   0.00000   0.00000   0.00000   0.00000   0.00000   0.00000   0.00000   0.00000
Generated with MDTraj, t= 24.0
 65
    1UNL     C1    1   0.153   0.495  -0.271
    1UNL     O1    2   0.054   0.403  -0.252
    1UNL     C2    3   0.040   0.352  -0.120
    1UNL     C3    4  -0.114   0.363  -0.075
    1UNL     C4    5  -0.123   0.281   0.058
    1UNL     C5    6  -0.266   0.272   0.112
    1UNL     O2    7  -0.038   0.357   0.153
    1UNL     C6    8   0.092   0.341   0.106
    1UNL     O3    9   0.112   0.420  -0.012
    1UNL     C7   10   0.101   0.191   0.056
    1UNL     C8   11   0.205   0.100   0.109
    1UNL     O4   12   0.209  -0.011   0.026
    1UNL     C9   13   0.307  -0.107   0.073
    1UNL     O5   14   0.366  -0.100   0.180
    1UNL    C10   15   0.344  -0.210  -0.022
    1UNL    C11   16   0.455  -0.294   0.002
    1UNL    C12   17   0.475  -0.400  -0.078
    1UNL    C13   18   0.397  -0.432  -0.185
    1UNL    C14   19   0.281  -0.351  -0.207
    1UNL    C15   20   0.261  -0.246  -0.129
    1UNL    C16   21   0.086   0.199  -0.108
    1UNL    C17   22  -0.021   0.094  -0.103
    1UNL    C18   23  -0.043   0.140   0.045
    1UNL     O6   24  -0.080   0.043   0.146
    1UNL    C19   25  -0.058  -0.088   0.103
    1UNL     O7   26  -0.116  -0.127  -0.025
    1UNL    C20   27  -0.259  -0.100  -0.022
    1UNL    C21   28  -0.326  -0.160  -0.142
    1UNL     O8   29  -0.449  -0.102  -0.185
    1UNL    C22   30  -0.325  -0.139   0.118
    1UNL     O9   31  -0.352  -0.032   0.213
    1UNL    C23   32  -0.240  -0.254   0.187
    1UNL    O10   33  -0.219  -0.374   0.113
    1UNL    C24   34  -0.101  -0.188   0.214
    1UNL    O11   35   0.001  -0.289   0.226
    1UNL     H1   36   0.157   0.571  -0.190
    1UNL     H2   37   0.148   0.554  -0.370
    1UNL     H3   38   0.247   0.446  -0.292
    1UNL     H4   39  -0.149   0.469  -0.048
    1UNL     H5   40  -0.177   0.330  -0.159
    1UNL     H6   41  -0.277   0.256   0.215
    1UNL     H7   42  -0.320   0.194   0.062
    1UNL     H8   43  -0.327   0.352   0.084
    1UNL     H9   44   0.166   0.358   0.185
    1UNL    H10   45   0.306   0.141   0.098
    1UNL    H11   46   0.170   0.070   0.204
    1UNL    H12   47   0.523  -0.260   0.068
    1UNL    H13   48   0.559  -0.460  -0.059
    1UNL    H14   49   0.416  -0.530  -0.236
    1UNL    H15   50   0.211  -0.368  -0.280
    1UNL    H16   51   0.172  -0.185  -0.147
    1UNL    H17   52   0.180   0.180  -0.165
    1UNL    H18   53   0.017  -0.009  -0.116
    1UNL    H19   54  -0.110   0.114  -0.162
    1UNL    H20   55   0.048  -0.108   0.092
    1UNL    H21   56  -0.256   0.010  -0.024
    1UNL    H22   57  -0.261  -0.154  -0.234
    1UNL    H23   58  -0.342  -0.268  -0.127
    1UNL    H24   59  -0.452  -0.005  -0.162
    1UNL    H25   60  -0.421  -0.180   0.087
    1UNL    H26   61  -0.262   0.003   0.235
    1UNL    H27   62  -0.288  -0.287   0.281
    1UNL    H28   63  -0.158  -0.341   0.045
    1UNL    H29   64  -0.111  -0.143   0.321
    1UNL    H30   65  -0.028  -0.383   0.222
   0.00000   0.00000   0.00000   0.00000   0.00000   0.00000   0.00000   0.00000   0.00000
Generated with MDTraj, t= 25.0
 65
    1UNL     C1    1   0.194   0.468  -0.257
    1UNL     O1    2   0.059   0.433  -0.246
    1UNL     C2    3   0.037   0.369  -0.117
    1UNL     C3    4  -0.117   0.367  -0.072
    1UNL     C4    5  -0.130   0.280   0.057
    1UNL     C5    6  -0.274   0.258   0.118
    1UNL     O2    7  -0.042   0.355   0.154
    1UNL     C6    8   0.089   0.346   0.106
    1UNL     O3    9   0.107   0.432  -0.008
    1UNL     C7   10   0.099   0.199   0.044
    1UNL     C8   11   0.217   0.103   0.091
    1UNL     O4   12   0.234  -0.008   0.008
    1UNL     C9   13   0.312  -0.103   0.068
    1UNL     O5   14   0.356  -0.089   0.181
    1UNL    C10   15   0.338  -0.227  -0.015
    1UNL    C11   16   0.451  -0.302  -0.002
    1UNL    C12   17   0.483  -0.401  -0.092
    1UNL    C13   18   0.405  -0.422  -0.204
    1UNL    C14   19   0.284  -0.355  -0.204
    1UNL    C15   20   0.248  -0.259  -0.114
    1UNL    C16   21   0.086   0.217  -0.109
    1UNL    C17   22  -0.029   0.105  -0.102
    1UNL    C18   23  -0.048   0.148   0.043
    1UNL     O6   24  -0.079   0.043   0.140
    1UNL    C19   25  -0.052  -0.095   0.106
    1UNL     O7   26  -0.116  -0.141  -0.013
    1UNL    C20   27  -0.254  -0.106  -0.028
    1UNL    C21   28  -0.326  -0.167  -0.143
    1UNL     O8   29  -0.469  -0.124  -0.153
    1UNL    C22   30  -0.328  -0.149   0.104
    1UNL     O9   31  -0.345  -0.035   0.182
    1UNL    C23   32  -0.240  -0.243   0.184
    1UNL    O10   33  -0.222  -0.365   0.115
    1UNL    C24   34  -0.106  -0.181   0.226
    1UNL    O11   35  -0.018  -0.284   0.252
    1UNL     H1   36   0.219   0.549  -0.185
    1UNL     H2   37   0.232   0.504  -0.359
    1UNL     H3   38   0.254   0.381  -0.241
    1UNL     H4   39  -0.143   0.471  -0.058
    1UNL     H5   40  -0.180   0.323  -0.165
    1UNL     H6   41  -0.255   0.219   0.220
    1UNL     H7   42  -0.339   0.194   0.068
    1UNL     H8   43  -0.331   0.350   0.122
    1UNL     H9   44   0.169   0.359   0.178
    1UNL    H10   45   0.307   0.163   0.084
    1UNL    H11   46   0.203   0.059   0.185
    1UNL    H12   47   0.514  -0.271   0.089
    1UNL    H13   48   0.577  -0.458  -0.074
    1UNL    H14   49   0.437  -0.486  -0.287
    1UNL    H15   50   0.213  -0.399  -0.283
    1UNL    H16   51   0.152  -0.210  -0.107
    1UNL    H17   52   0.176   0.179  -0.162
    1UNL    H18   53   0.013   0.010  -0.108
    1UNL    H19   54  -0.110   0.115  -0.184
    1UNL    H20   55   0.057  -0.104   0.102
    1UNL    H21   56  -0.249   0.004  -0.032
    1UNL    H22   57  -0.275  -0.156  -0.238
    1UNL    H23   58  -0.328  -0.276  -0.125
    1UNL    H24   59  -0.533  -0.200  -0.151
    1UNL    H25   60  -0.431  -0.186   0.087
    1UNL    H26   61  -0.255   0.006   0.183
    1UNL    H27   62  -0.292  -0.277   0.275
    1UNL    H28   63  -0.179  -0.350   0.025
    1UNL    H29   64  -0.115  -0.103   0.312
    1UNL    H30   65  -0.020  -0.356   0.181
   0.00000   0.00000   0.00000   0.00000   0.00000   0.00000   0.00000   0.00000   0.00000
Generated with MDTraj, t= 26.0
 65
    1UNL     C1    1   0.206   0.471  -0.256
    1UNL     O1    2   0.072   0.432  -0.235
    1UNL     C2    3   0.051   0.363  -0.112
    1UNL     C3    4  -0.104   0.368  -0.072
    1UNL     C4    5  -0.121   0.294   0.061
    1UNL     C5    6  -0.269   0.283   0.110
    1UNL     O2    7  -0.042   0.363   0.156
    1UNL     C6    8   0.090   0.338   0.113
    1UNL     O3    9   0.119   0.422   0.003
    1UNL     C7   10   0.097   0.196   0.055
    1UNL     C8   11   0.194   0.091   0.107
    1UNL     O4   12   0.208  -0.012   0.015
    1UNL     C9   13   0.304  -0.094   0.050
    1UNL     O5   14   0.363  -0.080   0.154
    1UNL    C10   15   0.340  -0.216  -0.034
    1UNL    C11   16   0.458  -0.280  -0.016
    1UNL    C12   17   0.489  -0.397  -0.085
    1UNL    C13   18   0.394  -0.445  -0.177
    1UNL    C14   19   0.277  -0.373  -0.202
    1UNL    C15   20   0.249  -0.259  -0.129
    1UNL    C16   21   0.093   0.213  -0.106
    1UNL    C17   22  -0.021   0.110  -0.110
    1UNL    C18   23  -0.054   0.149   0.040
    1UNL     O6   24  -0.097   0.054   0.136
    1UNL    C19   25  -0.061  -0.081   0.105
    1UNL     O7   26  -0.120  -0.123  -0.019
    1UNL    C20   27  -0.266  -0.119  -0.024
    1UNL    C21   28  -0.331  -0.196  -0.144
    1UNL     O8   29  -0.472  -0.162  -0.157
    1UNL    C22   30  -0.332  -0.151   0.119
    1UNL     O9   31  -0.363  -0.045   0.205
    1UNL    C23   32  -0.240  -0.248   0.187
    1UNL    O10   33  -0.197  -0.353   0.098
    1UNL    C24   34  -0.106  -0.178   0.228
    1UNL    O11   35  -0.002  -0.274   0.244
    1UNL     H1   36   0.242   0.523  -0.167
    1UNL     H2   37   0.222   0.538  -0.348
    1UNL     H3   38   0.267   0.385  -0.266
    1UNL     H4   39  -0.124   0.475  -0.057
    1UNL     H5   40  -0.170   0.331  -0.154
    1UNL     H6   41  -0.268   0.195   0.172
    1UNL     H7   42  -0.333   0.268   0.027
    1UNL     H8   43  -0.306   0.374   0.160
    1UNL     H9   44   0.154   0.353   0.198
    1UNL    H10   45   0.300   0.123   0.111
    1UNL    H11   46   0.164   0.052   0.199
    1UNL    H12   47   0.521  -0.249   0.062
    1UNL    H13   48   0.585  -0.436  -0.069
    1UNL    H14   49   0.415  -0.528  -0.236
    1UNL    H15   50   0.203  -0.409  -0.265
    1UNL    H16   51   0.147  -0.223  -0.133
    1UNL    H17   52   0.186   0.182  -0.159
    1UNL    H18   53   0.007   0.009  -0.109
    1UNL    H19   54  -0.103   0.128  -0.190
    1UNL    H20   55   0.048  -0.096   0.103
    1UNL    H21   56  -0.290  -0.013  -0.052
    1UNL    H22   57  -0.287  -0.153  -0.230
    1UNL    H23   58  -0.309  -0.305  -0.147
    1UNL    H24   59  -0.501  -0.166  -0.250
    1UNL    H25   60  -0.436  -0.189   0.101
    1UNL    H26   61  -0.277   0.004   0.204
    1UNL    H27   62  -0.285  -0.301   0.273
    1UNL    H28   63  -0.139  -0.313   0.032
    1UNL    H29   64  -0.124  -0.117   0.325
    1UNL    H30   65  -0.045  -0.354   0.218
   0.00000   0.00000   0.00000   0.00000   0.00000   0.00000   0.00000   0.00000   0.00000
Generated with MDTraj, t= 27.0
 65
    1UNL     C1    1   0.212   0.468  -0.231
    1UNL     O1    2   0.082   0.431  -0.228
    1UNL     C2    3   0.054   0.373  -0.104
    1UNL     C3    4  -0.098   0.390  -0.074
    1UNL     C4    5  -0.125   0.307   0.058
    1UNL     C5    6  -0.273   0.321   0.106
    1UNL     O2    7  -0.037   0.364   0.160
    1UNL     C6    8   0.098   0.337   0.113
    1UNL     O3    9   0.131   0.423   0.006
    1UNL     C7   10   0.092   0.192   0.054
    1UNL     C8   11   0.202   0.098   0.096
    1UNL     O4   12   0.209  -0.023   0.029
    1UNL     C9   13   0.321  -0.098   0.057
    1UNL     O5   14   0.411  -0.055   0.127
    1UNL    C10   15   0.342  -0.226  -0.020
    1UNL    C11   16   0.462  -0.296  -0.006
    1UNL    C12   17   0.486  -0.408  -0.094
    1UNL    C13   18   0.385  -0.450  -0.175
    1UNL    C14   19   0.263  -0.385  -0.193
    1UNL    C15   20   0.244  -0.273  -0.106
    1UNL    C16   21   0.085   0.217  -0.097
    1UNL    C17   22  -0.036   0.122  -0.103
    1UNL    C18   23  -0.067   0.160   0.045
    1UNL     O6   24  -0.117   0.064   0.131
    1UNL    C19   25  -0.084  -0.068   0.087
    1UNL     O7   26  -0.142  -0.126  -0.032
    1UNL    C20   27  -0.281  -0.125  -0.026
    1UNL    C21   28  -0.341  -0.202  -0.147
    1UNL     O8   29  -0.475  -0.184  -0.163
    1UNL    C22   30  -0.332  -0.178   0.114
    1UNL     O9   31  -0.367  -0.078   0.201
    1UNL    C23   32  -0.224  -0.254   0.183
    1UNL    O10   33  -0.201  -0.369   0.110
    1UNL    C24   34  -0.099  -0.164   0.207
    1UNL    O11   35   0.014  -0.247   0.234
    1UNL     H1   36   0.227   0.542  -0.154
    1UNL     H2   37   0.234   0.509  -0.334
    1UNL     H3   38   0.273   0.390  -0.196
    1UNL     H4   39  -0.125   0.498  -0.068
    1UNL     H5   40  -0.150   0.353  -0.150
    1UNL     H6   41  -0.283   0.317   0.212
    1UNL     H7   42  -0.331   0.234   0.063
    1UNL     H8   43  -0.315   0.409   0.056
    1UNL     H9   44   0.170   0.338   0.193
    1UNL    H10   45   0.299   0.148   0.068
    1UNL    H11   46   0.206   0.067   0.197
    1UNL    H12   47   0.535  -0.242   0.054
    1UNL    H13   48   0.587  -0.455  -0.102
    1UNL    H14   49   0.410  -0.539  -0.241
    1UNL    H15   50   0.183  -0.407  -0.262
    1UNL    H16   51   0.147  -0.223  -0.110
    1UNL    H17   52   0.172   0.185  -0.158
    1UNL    H18   53  -0.019   0.008  -0.107
    1UNL    H19   54  -0.122   0.152  -0.162
    1UNL    H20   55   0.022  -0.072   0.069
    1UNL    H21   56  -0.302  -0.017  -0.035
    1UNL    H22   57  -0.286  -0.183  -0.232
    1UNL    H23   58  -0.323  -0.305  -0.116
    1UNL    H24   59  -0.507  -0.241  -0.236
    1UNL    H25   60  -0.424  -0.244   0.117
    1UNL    H26   61  -0.299  -0.006   0.192
    1UNL    H27   62  -0.253  -0.296   0.282
    1UNL    H28   63  -0.159  -0.335   0.024
    1UNL    H29   64  -0.114  -0.106   0.303
    1UNL    H30   65   0.027  -0.311   0.156
   0.00000   0.00000   0.00000   0.00000   0.00000   0.00000   0.00000   0.00000   0.00000
Generated with MDTraj, t= 28.0
 65
    1UNL     C1    1   0.230   0.471  -0.224
    1UNL     O1    2   0.094   0.442  -0.219
    1UNL     C2    3   0.057   0.376  -0.101
    1UNL     C3    4  -0.090   0.398  -0.057
    1UNL     C4    5  -0.117   0.310   0.060
    1UNL     C5    6  -0.261   0.302   0.102
    1UNL     O2    7  -0.033   0.360   0.162
    1UNL     C6    8   0.103   0.332   0.121
    1UNL     O3    9   0.137   0.421   0.010
    1UNL     C7   10   0.099   0.192   0.050
    1UNL     C8   11   0.185   0.084   0.104
    1UNL     O4   12   0.201  -0.025   0.023
    1UNL     C9   13   0.323  -0.077   0.041
    1UNL     O5   14   0.411  -0.020   0.105
    1UNL    C10   15   0.338  -0.207  -0.035
    1UNL    C11   16   0.459  -0.275  -0.024
    1UNL    C12   17   0.473  -0.405  -0.076
    1UNL    C13   18   0.360  -0.460  -0.146
    1UNL    C14   19   0.239  -0.390  -0.156
    1UNL    C15   20   0.231  -0.261  -0.103
    1UNL    C16   21   0.097   0.222  -0.106
    1UNL    C17   22  -0.033   0.129  -0.113
    1UNL    C18   23  -0.055   0.160   0.033
    1UNL     O6   24  -0.115   0.057   0.113
    1UNL    C19   25  -0.075  -0.075   0.080
    1UNL     O7   26  -0.135  -0.125  -0.048
    1UNL    C20   27  -0.277  -0.134  -0.033
    1UNL    C21   28  -0.350  -0.218  -0.141
    1UNL     O8   29  -0.487  -0.197  -0.136
    1UNL    C22   30  -0.335  -0.188   0.107
    1UNL     O9   31  -0.380  -0.081   0.191
    1UNL    C23   32  -0.227  -0.265   0.182
    1UNL    O10   33  -0.179  -0.373   0.102
    1UNL    C24   34  -0.103  -0.169   0.205
    1UNL    O11   35   0.012  -0.240   0.236
    1UNL     H1   36   0.252   0.536  -0.140
    1UNL     H2   37   0.245   0.522  -0.322
    1UNL     H3   38   0.287   0.387  -0.197
    1UNL     H4   39  -0.097   0.500  -0.033
    1UNL     H5   40  -0.157   0.377  -0.142
    1UNL     H6   41  -0.274   0.202   0.140
    1UNL     H7   42  -0.334   0.314   0.018
    1UNL     H8   43  -0.286   0.381   0.174
    1UNL     H9   44   0.188   0.327   0.190
    1UNL    H10   45   0.291   0.122   0.123
    1UNL    H11   46   0.146   0.046   0.199
    1UNL    H12   47   0.550  -0.232   0.027
    1UNL    H13   48   0.573  -0.439  -0.080
    1UNL    H14   49   0.363  -0.555  -0.184
    1UNL    H15   50   0.148  -0.439  -0.211
    1UNL    H16   51   0.132  -0.220  -0.106
    1UNL    H17   52   0.189   0.205  -0.165
    1UNL    H18   53  -0.006   0.017  -0.139
    1UNL    H19   54  -0.111   0.165  -0.176
    1UNL    H20   55   0.026  -0.064   0.059
    1UNL    H21   56  -0.305  -0.031  -0.056
    1UNL    H22   57  -0.315  -0.189  -0.231
    1UNL    H23   58  -0.324  -0.321  -0.126
    1UNL    H24   59  -0.536  -0.277  -0.166
    1UNL    H25   60  -0.427  -0.251   0.087
    1UNL    H26   61  -0.304  -0.019   0.190
    1UNL    H27   62  -0.265  -0.325   0.269
    1UNL    H28   63  -0.146  -0.327   0.024
    1UNL    H29   64  -0.125  -0.088   0.279
    1UNL    H30   65  -0.010  -0.329   0.268
   0.00000   0.00000   0.00000   0.00000   0.00000   0.00000   0.00000   0.00000   0.00000
Generated with MDTraj, t= 29.0
 65
    1UNL     C1    1   0.239   0.478  -0.211
    1UNL     O1    2   0.101   0.454  -0.214
    1UNL     C2    3   0.063   0.382  -0.096
    1UNL     C3    4  -0.096   0.394  -0.071
    1UNL     C4    5  -0.129   0.305   0.056
    1UNL     C5    6  -0.275   0.286   0.079
    1UNL     O2    7  -0.054   0.363   0.162
    1UNL     C6    8   0.087   0.345   0.131
    1UNL     O3    9   0.126   0.437   0.027
    1UNL     C7   10   0.091   0.204   0.063
    1UNL     C8   11   0.201   0.099   0.104
    1UNL     O4   12   0.211  -0.011   0.014
    1UNL     C9   13   0.328  -0.080   0.021
    1UNL     O5   14   0.427  -0.030   0.068
    1UNL    C10   15   0.335  -0.218  -0.037
    1UNL    C11   16   0.455  -0.284  -0.037
    1UNL    C12   17   0.466  -0.418  -0.086
    1UNL    C13   18   0.351  -0.479  -0.133
    1UNL    C14   19   0.232  -0.413  -0.129
    1UNL    C15   20   0.221  -0.282  -0.081
    1UNL    C16   21   0.100   0.232  -0.087
    1UNL    C17   22  -0.010   0.136  -0.108
    1UNL    C18   23  -0.060   0.168   0.037
    1UNL     O6   24  -0.115   0.059   0.118
    1UNL    C19   25  -0.074  -0.070   0.085
    1UNL     O7   26  -0.143  -0.125  -0.033
    1UNL    C20   27  -0.286  -0.132  -0.028
    1UNL    C21   28  -0.341  -0.212  -0.150
    1UNL     O8   29  -0.483  -0.235  -0.139
    1UNL    C22   30  -0.337  -0.181   0.114
    1UNL     O9   31  -0.361  -0.058   0.201
    1UNL    C23   32  -0.223  -0.259   0.176
    1UNL    O10   33  -0.178  -0.368   0.097
    1UNL    C24   34  -0.096  -0.168   0.200
    1UNL    O11   35   0.012  -0.258   0.211
    1UNL     H1   36   0.266   0.489  -0.107
    1UNL     H2   37   0.252   0.573  -0.271
    1UNL     H3   38   0.289   0.392  -0.244
    1UNL     H4   39  -0.117   0.491  -0.051
    1UNL     H5   40  -0.151   0.365  -0.171
    1UNL     H6   41  -0.313   0.265   0.185
    1UNL     H7   42  -0.321   0.207   0.023
    1UNL     H8   43  -0.322   0.376   0.035
    1UNL     H9   44   0.144   0.358   0.224
    1UNL    H10   45   0.303   0.152   0.106
    1UNL    H11   46   0.182   0.064   0.208
    1UNL    H12   47   0.532  -0.229  -0.001
    1UNL    H13   48   0.563  -0.469  -0.083
    1UNL    H14   49   0.358  -0.577  -0.189
    1UNL    H15   50   0.147  -0.463  -0.136
    1UNL    H16   51   0.132  -0.221  -0.064
    1UNL    H17   52   0.195   0.206  -0.136
    1UNL    H18   53   0.015   0.027  -0.116
    1UNL    H19   54  -0.079   0.175  -0.188
    1UNL    H20   55   0.031  -0.083   0.070
    1UNL    H21   56  -0.318  -0.032  -0.052
    1UNL    H22   57  -0.321  -0.163  -0.237
    1UNL    H23   58  -0.287  -0.304  -0.158
    1UNL    H24   59  -0.521  -0.261  -0.226
    1UNL    H25   60  -0.440  -0.226   0.107
    1UNL    H26   61  -0.278  -0.005   0.196
    1UNL    H27   62  -0.256  -0.310   0.270
    1UNL    H28   63  -0.134  -0.323   0.018
    1UNL    H29   64  -0.096  -0.127   0.301
    1UNL    H30   65  -0.016  -0.342   0.178
   0.00000   0.00000   0.00000   0.00000   0.00000   0.00000   0.00000   0.00000   0.00000
Generated with MDTraj, t= 30.0
 65
    1UNL     C1    1   0.232   0.497  -0.198
    1UNL     O1    2   0.097   0.455  -0.210
    1UNL     C2    3   0.057   0.386  -0.090
    1UNL     C3    4  -0.097   0.389  -0.067
    1UNL     C4    5  -0.133   0.299   0.049
    1UNL     C5    6  -0.281   0.286   0.082
    1UNL     O2    7  -0.053   0.348   0.164
    1UNL     C6    8   0.085   0.335   0.126
    1UNL     O3    9   0.119   0.432   0.031
    1UNL     C7   10   0.096   0.202   0.050
    1UNL     C8   11   0.206   0.107   0.103
    1UNL     O4   12   0.202  -0.015   0.039
    1UNL     C9   13   0.322  -0.075   0.026
    1UNL     O5   14   0.426  -0.026   0.061
    1UNL    C10   15   0.328  -0.213  -0.030
    1UNL    C11   16   0.448  -0.277  -0.050
    1UNL    C12   17   0.452  -0.404  -0.094
    1UNL    C13   18   0.334  -0.478  -0.121
    1UNL    C14   19   0.213  -0.410  -0.098
    1UNL    C15   20   0.213  -0.280  -0.056
    1UNL    C16   21   0.103   0.232  -0.105
    1UNL    C17   22  -0.015   0.125  -0.120
    1UNL    C18   23  -0.051   0.158   0.025
    1UNL     O6   24  -0.099   0.051   0.109
    1UNL    C19   25  -0.068  -0.082   0.079
    1UNL     O7   26  -0.139  -0.127  -0.042
    1UNL    C20   27  -0.278  -0.120  -0.035
    1UNL    C21   28  -0.334  -0.214  -0.137
    1UNL     O8   29  -0.476  -0.220  -0.135
    1UNL    C22   30  -0.318  -0.167   0.103
    1UNL     O9   31  -0.339  -0.048   0.183
    1UNL    C23   32  -0.220  -0.259   0.178
    1UNL    O10   33  -0.185  -0.372   0.097
    1UNL    C24   34  -0.091  -0.180   0.198
    1UNL    O11   35   0.018  -0.268   0.198
    1UNL     H1   36   0.229   0.578  -0.123
    1UNL     H2   37   0.260   0.536  -0.300
    1UNL     H3   38   0.289   0.415  -0.162
    1UNL     H4   39  -0.110   0.501  -0.051
    1UNL     H5   40  -0.156   0.355  -0.156
    1UNL     H6   41  -0.293   0.200   0.156
    1UNL     H7   42  -0.359   0.273   0.009
    1UNL     H8   43  -0.311   0.382   0.135
    1UNL     H9   44   0.134   0.350   0.226
    1UNL    H10   45   0.310   0.157   0.099
    1UNL    H11   46   0.188   0.088   0.213
    1UNL    H12   47   0.548  -0.227  -0.024
    1UNL    H13   48   0.541  -0.457  -0.118
    1UNL    H14   49   0.335  -0.580  -0.152
    1UNL    H15   50   0.111  -0.456  -0.107
    1UNL    H16   51   0.122  -0.240  -0.019
    1UNL    H17   52   0.207   0.213  -0.139
    1UNL    H18   53   0.023   0.026  -0.138
    1UNL    H19   54  -0.108   0.161  -0.184
    1UNL    H20   55   0.041  -0.084   0.052
    1UNL    H21   56  -0.298  -0.017  -0.062
    1UNL    H22   57  -0.299  -0.194  -0.230
    1UNL    H23   58  -0.301  -0.315  -0.120
    1UNL    H24   59  -0.510  -0.286  -0.199
    1UNL    H25   60  -0.414  -0.221   0.105
    1UNL    H26   61  -0.258   0.003   0.176
    1UNL    H27   62  -0.262  -0.301   0.272
    1UNL    H28   63  -0.139  -0.333   0.019
    1UNL    H29   64  -0.096  -0.117   0.284
    1UNL    H30   65  -0.023  -0.362   0.212
   0.00000   0.00000   0.00000   0.00000   0.00000   0.00000   0.00000   0.00000   0.00000
Generated with MDTraj, t= 31.0
 65
    1UNL     C1    1   0.196   0.542  -0.210
    1UNL     O1    2   0.094   0.448  -0.225
    1UNL     C2    3   0.058   0.384  -0.102
    1UNL     C3    4  -0.089   0.386  -0.075
    1UNL     C4    5  -0.118   0.297   0.053
    1UNL     C5    6  -0.263   0.280   0.094
    1UNL     O2    7  -0.045   0.355   0.159
    1UNL     C6    8   0.089   0.343   0.124
    1UNL     O3    9   0.120   0.440   0.022
    1UNL     C7   10   0.100   0.196   0.057
    1UNL     C8   11   0.208   0.100   0.109
    1UNL     O4   12   0.205  -0.011   0.026
    1UNL     C9   13   0.332  -0.077   0.030
    1UNL     O5   14   0.434  -0.025   0.074
    1UNL    C10   15   0.328  -0.209  -0.028
    1UNL    C11   16   0.453  -0.281  -0.052
    1UNL    C12   17   0.453  -0.406  -0.102
    1UNL    C13   18   0.334  -0.478  -0.117
    1UNL    C14   19   0.211  -0.419  -0.086
    1UNL    C15   20   0.211  -0.288  -0.039
    1UNL    C16   21   0.107   0.228  -0.091
    1UNL    C17   22   0.005   0.121  -0.120
    1UNL    C18   23  -0.045   0.150   0.034
    1UNL     O6   24  -0.098   0.050   0.120
    1UNL    C19   25  -0.067  -0.079   0.075
    1UNL     O7   26  -0.131  -0.120  -0.047
    1UNL    C20   27  -0.275  -0.130  -0.030
    1UNL    C21   28  -0.338  -0.208  -0.146
    1UNL     O8   29  -0.477  -0.176  -0.145
    1UNL    C22   30  -0.330  -0.180   0.106
    1UNL     O9   31  -0.379  -0.067   0.183
    1UNL    C23   32  -0.226  -0.270   0.176
    1UNL    O10   33  -0.194  -0.401   0.113
    1UNL    C24   34  -0.097  -0.186   0.185
    1UNL    O11   35   0.025  -0.262   0.200
    1UNL     H1   36   0.164   0.599  -0.118
    1UNL     H2   37   0.197   0.611  -0.299
    1UNL     H3   38   0.285   0.481  -0.197
    1UNL     H4   39  -0.123   0.498  -0.039
    1UNL     H5   40  -0.152   0.359  -0.157
    1UNL     H6   41  -0.267   0.236   0.195
    1UNL     H7   42  -0.334   0.220   0.027
    1UNL     H8   43  -0.305   0.387   0.096
    1UNL     H9   44   0.161   0.358   0.210
    1UNL    H10   45   0.311   0.148   0.111
    1UNL    H11   46   0.187   0.072   0.216
    1UNL    H12   47   0.538  -0.223  -0.048
    1UNL    H13   48   0.544  -0.449  -0.142
    1UNL    H14   49   0.333  -0.578  -0.156
    1UNL    H15   50   0.121  -0.483  -0.099
    1UNL    H16   51   0.119  -0.236  -0.008
    1UNL    H17   52   0.205   0.213  -0.139
    1UNL    H18   53   0.045   0.023  -0.144
    1UNL    H19   54  -0.073   0.165  -0.194
    1UNL    H20   55   0.044  -0.079   0.059
    1UNL    H21   56  -0.309  -0.031  -0.052
    1UNL    H22   57  -0.311  -0.188  -0.244
    1UNL    H23   58  -0.317  -0.315  -0.143
    1UNL    H24   59  -0.537  -0.247  -0.174
    1UNL    H25   60  -0.419  -0.240   0.089
    1UNL    H26   61  -0.300  -0.006   0.188
    1UNL    H27   62  -0.256  -0.294   0.279
    1UNL    H28   63  -0.141  -0.379   0.033
    1UNL    H29   64  -0.101  -0.116   0.265
    1UNL    H30   65  -0.004  -0.357   0.206
   0.00000   0.00000   0.00000   0.00000   0.00000   0.00000   0.00000   0.00000   0.00000
Generated with MDTraj, t= 32.0
 65
    1UNL     C1    1   0.164   0.555  -0.210
    1UNL     O1    2   0.087   0.442  -0.232
    1UNL     C2    3   0.051   0.377  -0.106
    1UNL     C3    4  -0.100   0.390  -0.069
    1UNL     C4    5  -0.128   0.299   0.058
    1UNL     C5    6  -0.277   0.294   0.104
    1UNL     O2    7  -0.043   0.356   0.160
    1UNL     C6    8   0.095   0.337   0.119
    1UNL     O3    9   0.124   0.428   0.010
    1UNL     C7   10   0.106   0.197   0.045
    1UNL     C8   11   0.212   0.096   0.100
    1UNL     O4   12   0.214  -0.028   0.029
    1UNL     C9   13   0.335  -0.088   0.046
    1UNL     O5   14   0.435  -0.037   0.096
    1UNL    C10   15   0.341  -0.228  -0.016
    1UNL    C11   16   0.462  -0.285  -0.054
    1UNL    C12   17   0.470  -0.412  -0.104
    1UNL    C13   18   0.356  -0.484  -0.129
    1UNL    C14   19   0.231  -0.427  -0.093
    1UNL    C15   20   0.223  -0.304  -0.041
    1UNL    C16   21   0.090   0.222  -0.113
    1UNL    C17   22  -0.024   0.123  -0.114
    1UNL    C18   23  -0.055   0.154   0.030
    1UNL     O6   24  -0.100   0.049   0.125
    1UNL    C19   25  -0.066  -0.084   0.082
    1UNL     O7   26  -0.138  -0.130  -0.032
    1UNL    C20   27  -0.281  -0.107  -0.020
    1UNL    C21   28  -0.329  -0.175  -0.151
    1UNL     O8   29  -0.471  -0.166  -0.169
    1UNL    C22   30  -0.337  -0.171   0.113
    1UNL     O9   31  -0.368  -0.062   0.199
    1UNL    C23   32  -0.229  -0.265   0.177
    1UNL    O10   33  -0.198  -0.370   0.082
    1UNL    C24   34  -0.095  -0.187   0.197
    1UNL    O11   35   0.027  -0.269   0.209
    1UNL     H1   36   0.091   0.633  -0.171
    1UNL     H2   37   0.198   0.592  -0.308
    1UNL     H3   38   0.250   0.518  -0.152
    1UNL     H4   39  -0.122   0.492  -0.052
    1UNL     H5   40  -0.175   0.358  -0.144
    1UNL     H6   41  -0.292   0.260   0.207
    1UNL     H7   42  -0.332   0.221   0.031
    1UNL     H8   43  -0.318   0.397   0.081
    1UNL     H9   44   0.168   0.360   0.203
    1UNL    H10   45   0.313   0.142   0.083
    1UNL    H11   46   0.214   0.075   0.209
    1UNL    H12   47   0.558  -0.229  -0.043
    1UNL    H13   48   0.564  -0.448  -0.147
    1UNL    H14   49   0.369  -0.583  -0.179
    1UNL    H15   50   0.148  -0.485  -0.109
    1UNL    H16   51   0.132  -0.256  -0.017
    1UNL    H17   52   0.181   0.218  -0.175
    1UNL    H18   53   0.010   0.015  -0.127
    1UNL    H19   54  -0.109   0.145  -0.184
    1UNL    H20   55   0.037  -0.099   0.050
    1UNL    H21   56  -0.290   0.001  -0.026
    1UNL    H22   57  -0.270  -0.152  -0.237
    1UNL    H23   58  -0.318  -0.286  -0.148
    1UNL    H24   59  -0.499  -0.154  -0.263
    1UNL    H25   60  -0.434  -0.214   0.093
    1UNL    H26   61  -0.284  -0.011   0.198
    1UNL    H27   62  -0.260  -0.312   0.270
    1UNL    H28   63  -0.102  -0.360   0.057
    1UNL    H29   64  -0.098  -0.134   0.290
    1UNL    H30   65   0.010  -0.319   0.288
   0.00000   0.00000   0.00000   0.00000   0.00000   0.00000   0.00000   0.00000   0.00000
Generated with MDTraj, t= 33.0
 65
    1UNL     C1    1   0.107   0.558  -0.223
    1UNL     O1    2   0.076   0.419  -0.233
    1UNL     C2    3   0.053   0.361  -0.109
    1UNL     C3    4  -0.093   0.380  -0.065
    1UNL     C4    5  -0.117   0.294   0.066
    1UNL     C5    6  -0.261   0.293   0.111
    1UNL     O2    7  -0.029   0.359   0.166
    1UNL     C6    8   0.112   0.339   0.111
    1UNL     O3    9   0.131   0.422  -0.006
    1UNL     C7   10   0.095   0.191   0.050
    1UNL     C8   11   0.204   0.095   0.096
    1UNL     O4   12   0.208  -0.023   0.013
    1UNL     C9   13   0.318  -0.094   0.045
    1UNL     O5   14   0.406  -0.051   0.118
    1UNL    C10   15   0.341  -0.232  -0.012
    1UNL    C11   16   0.464  -0.271  -0.047
    1UNL    C12   17   0.484  -0.399  -0.099
    1UNL    C13   18   0.380  -0.483  -0.123
    1UNL    C14   19   0.255  -0.434  -0.108
    1UNL    C15   20   0.232  -0.307  -0.054
    1UNL    C16   21   0.089   0.212  -0.099
    1UNL    C17   22  -0.038   0.112  -0.107
    1UNL    C18   23  -0.057   0.145   0.044
    1UNL     O6   24  -0.082   0.046   0.142
    1UNL    C19   25  -0.061  -0.087   0.092
    1UNL     O7   26  -0.126  -0.130  -0.032
    1UNL    C20   27  -0.271  -0.107  -0.031
    1UNL    C21   28  -0.331  -0.164  -0.160
    1UNL     O8   29  -0.470  -0.143  -0.167
    1UNL    C22   30  -0.331  -0.153   0.102
    1UNL     O9   31  -0.354  -0.033   0.178
    1UNL    C23   32  -0.232  -0.258   0.174
    1UNL    O10   33  -0.205  -0.358   0.075
    1UNL    C24   34  -0.101  -0.189   0.206
    1UNL    O11   35   0.007  -0.280   0.216
    1UNL     H1   36   0.013   0.612  -0.187
    1UNL     H2   37   0.122   0.602  -0.320
    1UNL     H3   38   0.201   0.560  -0.168
    1UNL     H4   39  -0.110   0.477  -0.049
    1UNL     H5   40  -0.167   0.352  -0.141
    1UNL     H6   41  -0.265   0.200   0.180
    1UNL     H7   42  -0.334   0.277   0.027
    1UNL     H8   43  -0.284   0.390   0.165
    1UNL     H9   44   0.187   0.343   0.196
    1UNL    H10   45   0.310   0.125   0.102
    1UNL    H11   46   0.182   0.071   0.199
    1UNL    H12   47   0.546  -0.208  -0.028
    1UNL    H13   48   0.583  -0.437  -0.109
    1UNL    H14   49   0.396  -0.579  -0.158
    1UNL    H15   50   0.169  -0.508  -0.128
    1UNL    H16   51   0.132  -0.271  -0.029
    1UNL    H17   52   0.171   0.185  -0.167
    1UNL    H18   53  -0.008   0.001  -0.138
    1UNL    H19   54  -0.116   0.153  -0.169
    1UNL    H20   55   0.038  -0.090   0.060
    1UNL    H21   56  -0.267   0.003  -0.030
    1UNL    H22   57  -0.289  -0.122  -0.252
    1UNL    H23   58  -0.302  -0.273  -0.174
    1UNL    H24   59  -0.521  -0.182  -0.091
    1UNL    H25   60  -0.430  -0.191   0.084
    1UNL    H26   61  -0.269   0.012   0.195
    1UNL    H27   62  -0.274  -0.314   0.256
    1UNL    H28   63  -0.156  -0.314   0.004
    1UNL    H29   64  -0.099  -0.132   0.299
    1UNL    H30   65  -0.017  -0.359   0.155
   0.00000   0.00000   0.00000   0.00000   0.00000   0.00000   0.00000   0.00000   0.00000
Generated with MDTraj, t= 34.0
 65
    1UNL     C1    1   0.050   0.566  -0.236
    1UNL     O1    2   0.058   0.431  -0.246
    1UNL     C2    3   0.044   0.370  -0.117
    1UNL     C3    4  -0.107   0.376  -0.067
    1UNL     C4    5  -0.107   0.289   0.069
    1UNL     C5    6  -0.245   0.269   0.128
    1UNL     O2    7  -0.019   0.359   0.159
    1UNL     C6    8   0.113   0.343   0.107
    1UNL     O3    9   0.131   0.425  -0.012
    1UNL     C7   10   0.121   0.198   0.042
    1UNL     C8   11   0.219   0.095   0.094
    1UNL     O4   12   0.230  -0.025   0.014
    1UNL     C9   13   0.332  -0.106   0.056
    1UNL     O5   14   0.405  -0.066   0.147
    1UNL    C10   15   0.354  -0.231  -0.014
    1UNL    C11   16   0.479  -0.288  -0.028
    1UNL    C12   17   0.493  -0.412  -0.090
    1UNL    C13   18   0.389  -0.482  -0.140
    1UNL    C14   19   0.268  -0.428  -0.133
    1UNL    C15   20   0.250  -0.301  -0.069
    1UNL    C16   21   0.097   0.223  -0.115
    1UNL    C17   22  -0.014   0.115  -0.103
    1UNL    C18   23  -0.030   0.151   0.043
    1UNL     O6   24  -0.082   0.052   0.135
    1UNL    C19   25  -0.068  -0.083   0.096
    1UNL     O7   26  -0.125  -0.118  -0.029
    1UNL    C20   27  -0.269  -0.108  -0.027
    1UNL    C21   28  -0.331  -0.157  -0.156
    1UNL     O8   29  -0.463  -0.119  -0.158
    1UNL    C22   30  -0.346  -0.155   0.098
    1UNL     O9   31  -0.370  -0.045   0.184
    1UNL    C23   32  -0.252  -0.260   0.172
    1UNL    O10   33  -0.231  -0.374   0.097
    1UNL    C24   34  -0.121  -0.190   0.201
    1UNL    O11   35  -0.021  -0.287   0.214
    1UNL     H1   36  -0.061   0.594  -0.233
    1UNL     H2   37   0.084   0.612  -0.325
    1UNL     H3   38   0.116   0.595  -0.156
    1UNL     H4   39  -0.148   0.483  -0.047
    1UNL     H5   40  -0.168   0.340  -0.141
    1UNL     H6   41  -0.230   0.226   0.237
    1UNL     H7   42  -0.308   0.198   0.073
    1UNL     H8   43  -0.301   0.369   0.130
    1UNL     H9   44   0.189   0.374   0.183
    1UNL    H10   45   0.320   0.132   0.101
    1UNL    H11   46   0.202   0.057   0.191
    1UNL    H12   47   0.569  -0.234   0.011
    1UNL    H13   48   0.594  -0.454  -0.080
    1UNL    H14   49   0.398  -0.586  -0.185
    1UNL    H15   50   0.183  -0.472  -0.163
    1UNL    H16   51   0.146  -0.278  -0.064
    1UNL    H17   52   0.180   0.208  -0.182
    1UNL    H18   53   0.037   0.012  -0.122
    1UNL    H19   54  -0.101   0.140  -0.166
    1UNL    H20   55   0.034  -0.098   0.077
    1UNL    H21   56  -0.288   0.001  -0.031
    1UNL    H22   57  -0.268  -0.127  -0.246
    1UNL    H23   58  -0.333  -0.269  -0.170
    1UNL    H24   59  -0.482  -0.039  -0.212
    1UNL    H25   60  -0.441  -0.189   0.058
    1UNL    H26   61  -0.286   0.008   0.183
    1UNL    H27   62  -0.306  -0.298   0.257
    1UNL    H28   63  -0.161  -0.343   0.034
    1UNL    H29   64  -0.125  -0.142   0.302
    1UNL    H30   65  -0.046  -0.357   0.280
   0.00000   0.00000   0.00000   0.00000   0.00000   0.00000   0.00000   0.00000   0.00000
Generated with MDTraj, t= 35.0
 65
    1UNL     C1    1   0.030   0.553  -0.234
    1UNL     O1    2   0.052   0.415  -0.240
    1UNL     C2    3   0.042   0.356  -0.111
    1UNL     C3    4  -0.104   0.362  -0.061
    1UNL     C4    5  -0.116   0.284   0.070
    1UNL     C5    6  -0.248   0.289   0.137
    1UNL     O2    7  -0.016   0.339   0.163
    1UNL     C6    8   0.106   0.329   0.103
    1UNL     O3    9   0.124   0.419  -0.006
    1UNL     C7   10   0.110   0.175   0.037
    1UNL     C8   11   0.227   0.092   0.083
    1UNL     O4   12   0.228  -0.026   0.015
    1UNL     C9   13   0.333  -0.097   0.065
    1UNL     O5   14   0.412  -0.061   0.155
    1UNL    C10   15   0.349  -0.231  -0.010
    1UNL    C11   16   0.469  -0.297   0.005
    1UNL    C12   17   0.491  -0.419  -0.065
    1UNL    C13   18   0.393  -0.461  -0.151
    1UNL    C14   19   0.273  -0.397  -0.159
    1UNL    C15   20   0.248  -0.282  -0.088
    1UNL    C16   21   0.092   0.198  -0.114
    1UNL    C17   22  -0.023   0.104  -0.120
    1UNL    C18   23  -0.047   0.142   0.035
    1UNL     O6   24  -0.082   0.039   0.125
    1UNL    C19   25  -0.062  -0.094   0.089
    1UNL     O7   26  -0.128  -0.135  -0.029
    1UNL    C20   27  -0.267  -0.098  -0.031
    1UNL    C21   28  -0.329  -0.151  -0.157
    1UNL     O8   29  -0.457  -0.103  -0.183
    1UNL    C22   30  -0.334  -0.130   0.102
    1UNL     O9   31  -0.333  -0.021   0.188
    1UNL    C23   32  -0.243  -0.238   0.179
    1UNL    O10   33  -0.239  -0.360   0.103
    1UNL    C24   34  -0.109  -0.185   0.206
    1UNL    O11   35  -0.018  -0.291   0.223
    1UNL     H1   36  -0.081   0.576  -0.228
    1UNL     H2   37   0.062   0.595  -0.324
    1UNL     H3   38   0.085   0.597  -0.154
    1UNL     H4   39  -0.126   0.474  -0.031
    1UNL     H5   40  -0.179   0.334  -0.130
    1UNL     H6   41  -0.237   0.268   0.246
    1UNL     H7   42  -0.311   0.204   0.096
    1UNL     H8   43  -0.308   0.387   0.124
    1UNL     H9   44   0.186   0.347   0.177
    1UNL    H10   45   0.321   0.138   0.053
    1UNL    H11   46   0.230   0.077   0.187
    1UNL    H12   47   0.542  -0.259   0.069
    1UNL    H13   48   0.586  -0.466  -0.076
    1UNL    H14   49   0.413  -0.547  -0.202
    1UNL    H15   50   0.201  -0.436  -0.241
    1UNL    H16   51   0.152  -0.231  -0.113
    1UNL    H17   52   0.188   0.181  -0.159
    1UNL    H18   53   0.010  -0.000  -0.130
    1UNL    H19   54  -0.104   0.124  -0.203
    1UNL    H20   55   0.040  -0.111   0.073
    1UNL    H21   56  -0.275   0.013  -0.043
    1UNL    H22   57  -0.257  -0.131  -0.245
    1UNL    H23   58  -0.333  -0.264  -0.156
    1UNL    H24   59  -0.490  -0.061  -0.102
    1UNL    H25   60  -0.439  -0.156   0.090
    1UNL    H26   61  -0.244   0.016   0.180
    1UNL    H27   62  -0.294  -0.265   0.270
    1UNL    H28   63  -0.221  -0.324   0.012
    1UNL    H29   64  -0.109  -0.127   0.304
    1UNL    H30   65  -0.045  -0.363   0.168
   0.00000   0.00000   0.00000   0.00000   0.00000   0.00000   0.00000   0.00000   0.00000
Generated with MDTraj, t= 36.0
 65
    1UNL     C1    1   0.068   0.555  -0.242
    1UNL     O1    2   0.050   0.415  -0.255
    1UNL     C2    3   0.037   0.364  -0.120
    1UNL     C3    4  -0.109   0.363  -0.073
    1UNL     C4    5  -0.121   0.284   0.064
    1UNL     C5    6  -0.266   0.288   0.119
    1UNL     O2    7  -0.036   0.354   0.155
    1UNL     C6    8   0.101   0.338   0.099
    1UNL     O3    9   0.112   0.427  -0.014
    1UNL     C7   10   0.110   0.193   0.046
    1UNL     C8   11   0.217   0.100   0.098
    1UNL     O4   12   0.216  -0.017   0.024
    1UNL     C9   13   0.323  -0.097   0.050
    1UNL     O5   14   0.406  -0.074   0.135
    1UNL    C10   15   0.346  -0.228  -0.023
    1UNL    C11   16   0.451  -0.312   0.022
    1UNL    C12   17   0.478  -0.432  -0.044
    1UNL    C13   18   0.392  -0.470  -0.144
    1UNL    C14   19   0.293  -0.391  -0.187
    1UNL    C15   20   0.263  -0.273  -0.130
    1UNL    C16   21   0.095   0.210  -0.111
    1UNL    C17   22  -0.010   0.100  -0.103
    1UNL    C18   23  -0.037   0.140   0.046
    1UNL     O6   24  -0.067   0.042   0.145
    1UNL    C19   25  -0.058  -0.096   0.105
    1UNL     O7   26  -0.115  -0.129  -0.026
    1UNL    C20   27  -0.258  -0.102  -0.020
    1UNL    C21   28  -0.330  -0.152  -0.145
    1UNL     O8   29  -0.451  -0.080  -0.165
    1UNL    C22   30  -0.327  -0.138   0.114
    1UNL     O9   31  -0.348  -0.026   0.201
    1UNL    C23   32  -0.247  -0.250   0.184
    1UNL    O10   33  -0.228  -0.363   0.087
    1UNL    C24   34  -0.111  -0.200   0.220
    1UNL    O11   35  -0.014  -0.312   0.210
    1UNL     H1   36  -0.026   0.608  -0.205
    1UNL     H2   37   0.097   0.598  -0.334
    1UNL     H3   38   0.140   0.576  -0.166
    1UNL     H4   39  -0.157   0.458  -0.054
    1UNL     H5   40  -0.164   0.316  -0.165
    1UNL     H6   41  -0.263   0.249   0.221
    1UNL     H7   42  -0.356   0.238   0.060
    1UNL     H8   43  -0.293   0.397   0.144
    1UNL     H9   44   0.163   0.363   0.184
    1UNL    H10   45   0.317   0.151   0.101
    1UNL    H11   46   0.191   0.070   0.196
    1UNL    H12   47   0.518  -0.274   0.101
    1UNL    H13   48   0.562  -0.490  -0.005
    1UNL    H14   49   0.415  -0.562  -0.207
    1UNL    H15   50   0.236  -0.420  -0.272
    1UNL    H16   51   0.191  -0.209  -0.165
    1UNL    H17   52   0.183   0.181  -0.164
    1UNL    H18   53   0.036   0.003  -0.114
    1UNL    H19   54  -0.101   0.109  -0.182
    1UNL    H20   55   0.047  -0.108   0.098
    1UNL    H21   56  -0.274   0.010  -0.019
    1UNL    H22   57  -0.260  -0.136  -0.237
    1UNL    H23   58  -0.345  -0.264  -0.139
    1UNL    H24   59  -0.514  -0.145  -0.204
    1UNL    H25   60  -0.431  -0.170   0.099
    1UNL    H26   61  -0.258   0.011   0.222
    1UNL    H27   62  -0.297  -0.300   0.270
    1UNL    H28   63  -0.178  -0.332   0.010
    1UNL    H29   64  -0.094  -0.145   0.319
    1UNL    H30   65  -0.076  -0.388   0.188
   0.00000   0.00000   0.00000   0.00000   0.00000   0.00000   0.00000   0.00000   0.00000
Generated with MDTraj, t= 37.0
 65
    1UNL     C1    1   0.108   0.544  -0.251
    1UNL     O1    2   0.062   0.412  -0.251
    1UNL     C2    3   0.042   0.361  -0.116
    1UNL     C3    4  -0.107   0.366  -0.066
    1UNL     C4    5  -0.121   0.274   0.058
    1UNL     C5    6  -0.265   0.260   0.111
    1UNL     O2    7  -0.035   0.347   0.156
    1UNL     C6    8   0.099   0.329   0.107
    1UNL     O3    9   0.117   0.421  -0.013
    1UNL     C7   10   0.099   0.186   0.040
    1UNL     C8   11   0.213   0.093   0.095
    1UNL     O4   12   0.235  -0.010   0.004
    1UNL     C9   13   0.334  -0.091   0.048
    1UNL     O5   14   0.402  -0.060   0.141
    1UNL    C10   15   0.347  -0.222  -0.012
    1UNL    C11   16   0.432  -0.319   0.036
    1UNL    C12   17   0.445  -0.437  -0.030
    1UNL    C13   18   0.377  -0.465  -0.148
    1UNL    C14   19   0.294  -0.365  -0.199
    1UNL    C15   20   0.288  -0.245  -0.134
    1UNL    C16   21   0.091   0.210  -0.114
    1UNL    C17   22  -0.024   0.099  -0.111
    1UNL    C18   23  -0.047   0.138   0.041
    1UNL     O6   24  -0.069   0.042   0.145
    1UNL    C19   25  -0.055  -0.088   0.100
    1UNL     O7   26  -0.128  -0.123  -0.019
    1UNL    C20   27  -0.273  -0.094  -0.012
    1UNL    C21   28  -0.342  -0.143  -0.136
    1UNL     O8   29  -0.471  -0.083  -0.157
    1UNL    C22   30  -0.339  -0.157   0.112
    1UNL     O9   31  -0.356  -0.053   0.206
    1UNL    C23   32  -0.233  -0.253   0.168
    1UNL    O10   33  -0.220  -0.368   0.083
    1UNL    C24   34  -0.100  -0.186   0.210
    1UNL    O11   35   0.013  -0.284   0.219
    1UNL     H1   36   0.038   0.618  -0.195
    1UNL     H2   37   0.120   0.574  -0.352
    1UNL     H3   38   0.200   0.558  -0.194
    1UNL     H4   39  -0.117   0.465  -0.037
    1UNL     H5   40  -0.185   0.346  -0.154
    1UNL     H6   41  -0.273   0.184   0.195
    1UNL     H7   42  -0.320   0.219   0.021
    1UNL     H8   43  -0.312   0.355   0.153
    1UNL     H9   44   0.168   0.361   0.183
    1UNL    H10   45   0.306   0.158   0.092
    1UNL    H11   46   0.194   0.056   0.196
    1UNL    H12   47   0.471  -0.303   0.132
    1UNL    H13   48   0.495  -0.523   0.003
    1UNL    H14   49   0.374  -0.557  -0.200
    1UNL    H15   50   0.246  -0.387  -0.287
    1UNL    H16   51   0.213  -0.171  -0.174
    1UNL    H17   52   0.179   0.180  -0.164
    1UNL    H18   53   0.016  -0.007  -0.119
    1UNL    H19   54  -0.126   0.114  -0.161
    1UNL    H20   55   0.047  -0.107   0.081
    1UNL    H21   56  -0.286   0.018  -0.014
    1UNL    H22   57  -0.273  -0.115  -0.227
    1UNL    H23   58  -0.353  -0.255  -0.127
    1UNL    H24   59  -0.531  -0.131  -0.221
    1UNL    H25   60  -0.439  -0.197   0.085
    1UNL    H26   61  -0.265  -0.021   0.221
    1UNL    H27   62  -0.276  -0.286   0.266
    1UNL    H28   63  -0.123  -0.378   0.062
    1UNL    H29   64  -0.099  -0.136   0.312
    1UNL    H30   65  -0.017  -0.349   0.290
   0.00000   0.00000   0.00000   0.00000   0.00000   0.00000   0.00000   0.00000   0.00000
Generated with MDTraj, t= 38.0
 65
    1UNL     C1    1   0.134   0.552  -0.237
    1UNL     O1    2   0.072   0.428  -0.249
    1UNL     C2    3   0.045   0.367  -0.123
    1UNL     C3    4  -0.107   0.374  -0.077
    1UNL     C4    5  -0.120   0.297   0.056
    1UNL     C5    6  -0.261   0.277   0.115
    1UNL     O2    7  -0.039   0.364   0.147
    1UNL     C6    8   0.103   0.343   0.103
    1UNL     O3    9   0.121   0.427  -0.015
    1UNL     C7   10   0.104   0.195   0.043
    1UNL     C8   11   0.215   0.101   0.093
    1UNL     O4   12   0.225  -0.021   0.024
    1UNL     C9   13   0.330  -0.096   0.067
    1UNL     O5   14   0.403  -0.061   0.156
    1UNL    C10   15   0.346  -0.218  -0.010
    1UNL    C11   16   0.413  -0.333   0.041
    1UNL    C12   17   0.419  -0.451  -0.028
    1UNL    C13   18   0.359  -0.467  -0.150
    1UNL    C14   19   0.305  -0.354  -0.208
    1UNL    C15   20   0.299  -0.234  -0.140
    1UNL    C16   21   0.087   0.214  -0.116
    1UNL    C17   22  -0.024   0.113  -0.107
    1UNL    C18   23  -0.052   0.151   0.036
    1UNL     O6   24  -0.092   0.040   0.123
    1UNL    C19   25  -0.062  -0.098   0.084
    1UNL     O7   26  -0.128  -0.143  -0.038
    1UNL    C20   27  -0.271  -0.118  -0.020
    1UNL    C21   28  -0.360  -0.159  -0.138
    1UNL     O8   29  -0.494  -0.108  -0.126
    1UNL    C22   30  -0.322  -0.168   0.116
    1UNL     O9   31  -0.356  -0.059   0.204
    1UNL    C23   32  -0.222  -0.271   0.182
    1UNL    O10   33  -0.207  -0.382   0.097
    1UNL    C24   34  -0.089  -0.194   0.204
    1UNL    O11   35   0.031  -0.275   0.216
    1UNL     H1   36   0.087   0.616  -0.151
    1UNL     H2   37   0.137   0.599  -0.333
    1UNL     H3   38   0.235   0.543  -0.194
    1UNL     H4   39  -0.135   0.475  -0.054
    1UNL     H5   40  -0.160   0.344  -0.162
    1UNL     H6   41  -0.250   0.232   0.223
    1UNL     H7   42  -0.306   0.204   0.048
    1UNL     H8   43  -0.321   0.372   0.129
    1UNL     H9   44   0.183   0.359   0.173
    1UNL    H10   45   0.314   0.162   0.087
    1UNL    H11   46   0.180   0.084   0.197
    1UNL    H12   47   0.458  -0.324   0.142
    1UNL    H13   48   0.457  -0.541   0.022
    1UNL    H14   49   0.356  -0.563  -0.197
    1UNL    H15   50   0.244  -0.357  -0.309
    1UNL    H16   51   0.267  -0.148  -0.189
    1UNL    H17   52   0.167   0.184  -0.177
    1UNL    H18   53   0.017   0.001  -0.112
    1UNL    H19   54  -0.098   0.129  -0.185
    1UNL    H20   55   0.039  -0.097   0.056
    1UNL    H21   56  -0.263  -0.005  -0.020
    1UNL    H22   57  -0.318  -0.111  -0.236
    1UNL    H23   58  -0.357  -0.271  -0.142
    1UNL    H24   59  -0.545  -0.094  -0.209
    1UNL    H25   60  -0.417  -0.223   0.093
    1UNL    H26   61  -0.273  -0.007   0.216
    1UNL    H27   62  -0.280  -0.307   0.272
    1UNL    H28   63  -0.184  -0.344   0.010
    1UNL    H29   64  -0.088  -0.131   0.296
    1UNL    H30   65   0.059  -0.295   0.128
   0.00000   0.00000   0.00000   0.00000   0.00000   0.00000   0.00000   0.00000   0.00000
Generated with MDTraj, t= 39.0
 65
    1UNL     C1    1   0.137   0.556  -0.229
    1UNL     O1    2   0.075   0.433  -0.239
    1UNL     C2    3   0.056   0.378  -0.113
    1UNL     C3    4  -0.096   0.378  -0.081
    1UNL     C4    5  -0.121   0.284   0.040
    1UNL     C5    6  -0.265   0.282   0.084
    1UNL     O2    7  -0.045   0.353   0.151
    1UNL     C6    8   0.098   0.346   0.108
    1UNL     O3    9   0.126   0.430  -0.001
    1UNL     C7   10   0.106   0.196   0.047
    1UNL     C8   11   0.212   0.096   0.098
    1UNL     O4   12   0.212  -0.010   0.009
    1UNL     C9   13   0.306  -0.097   0.059
    1UNL     O5   14   0.375  -0.077   0.157
    1UNL    C10   15   0.321  -0.226  -0.014
    1UNL    C11   16   0.377  -0.336   0.054
    1UNL    C12   17   0.402  -0.457  -0.009
    1UNL    C13   18   0.374  -0.463  -0.148
    1UNL    C14   19   0.302  -0.362  -0.212
    1UNL    C15   20   0.279  -0.240  -0.146
    1UNL    C16   21   0.107   0.222  -0.108
    1UNL    C17   22  -0.009   0.117  -0.119
    1UNL    C18   23  -0.047   0.148   0.027
    1UNL     O6   24  -0.084   0.049   0.124
    1UNL    C19   25  -0.058  -0.082   0.075
    1UNL     O7   26  -0.141  -0.122  -0.036
    1UNL    C20   27  -0.282  -0.104  -0.009
    1UNL    C21   28  -0.358  -0.180  -0.123
    1UNL     O8   29  -0.495  -0.162  -0.122
    1UNL    C22   30  -0.319  -0.163   0.132
    1UNL     O9   31  -0.338  -0.057   0.234
    1UNL    C23   32  -0.203  -0.261   0.176
    1UNL    O10   33  -0.190  -0.367   0.081
    1UNL    C24   34  -0.068  -0.184   0.185
    1UNL    O11   35   0.039  -0.274   0.173
    1UNL     H1   36   0.074   0.634  -0.169
    1UNL     H2   37   0.161   0.586  -0.328
    1UNL     H3   38   0.226   0.554  -0.164
    1UNL     H4   39  -0.126   0.481  -0.061
    1UNL     H5   40  -0.146   0.342  -0.160
    1UNL     H6   41  -0.272   0.220   0.177
    1UNL     H7   42  -0.321   0.230   0.003
    1UNL     H8   43  -0.310   0.384   0.110
    1UNL     H9   44   0.172   0.360   0.184
    1UNL    H10   45   0.308   0.164   0.094
    1UNL    H11   46   0.182   0.060   0.198
    1UNL    H12   47   0.408  -0.326   0.157
    1UNL    H13   48   0.454  -0.536   0.042
    1UNL    H14   49   0.394  -0.562  -0.201
    1UNL    H15   50   0.292  -0.379  -0.313
    1UNL    H16   51   0.244  -0.146  -0.194
    1UNL    H17   52   0.205   0.201  -0.142
    1UNL    H18   53   0.015   0.006  -0.145
    1UNL    H19   54  -0.086   0.142  -0.194
    1UNL    H20   55   0.035  -0.084   0.023
    1UNL    H21   56  -0.299   0.009  -0.014
    1UNL    H22   57  -0.318  -0.142  -0.224
    1UNL    H23   58  -0.337  -0.287  -0.116
    1UNL    H24   59  -0.527  -0.234  -0.180
    1UNL    H25   60  -0.412  -0.226   0.132
    1UNL    H26   61  -0.274   0.018   0.226
    1UNL    H27   62  -0.232  -0.313   0.273
    1UNL    H28   63  -0.104  -0.409   0.108
    1UNL    H29   64  -0.051  -0.141   0.285
    1UNL    H30   65   0.120  -0.255   0.221
   0.00000   0.00000   0.00000   0.00000   0.00000   0.00000   0.00000   0.00000   0.00000
Generated with MDTraj, t= 40.0
 65
    1UNL     C1    1   0.132   0.589  -0.212
    1UNL     O1    2   0.085   0.454  -0.237
    1UNL     C2    3   0.058   0.388  -0.113
    1UNL     C3    4  -0.099   0.393  -0.085
    1UNL     C4    5  -0.115   0.303   0.044
    1UNL     C5    6  -0.268   0.294   0.076
    1UNL     O2    7  -0.044   0.361   0.150
    1UNL     C6    8   0.091   0.343   0.110
    1UNL     O3    9   0.131   0.439   0.006
    1UNL     C7   10   0.104   0.204   0.040
    1UNL     C8   11   0.213   0.105   0.093
    1UNL     O4   12   0.243  -0.004  -0.001
    1UNL     C9   13   0.298  -0.109   0.070
    1UNL     O5   14   0.305  -0.116   0.192
    1UNL    C10   15   0.333  -0.234  -0.008
    1UNL    C11   16   0.384  -0.345   0.057
    1UNL    C12   17   0.396  -0.464  -0.013
    1UNL    C13   18   0.350  -0.477  -0.145
    1UNL    C14   19   0.291  -0.366  -0.210
    1UNL    C15   20   0.281  -0.246  -0.139
    1UNL    C16   21   0.106   0.239  -0.120
    1UNL    C17   22  -0.003   0.130  -0.131
    1UNL    C18   23  -0.039   0.156   0.023
    1UNL     O6   24  -0.079   0.055   0.107
    1UNL    C19   25  -0.057  -0.080   0.058
    1UNL     O7   26  -0.145  -0.109  -0.045
    1UNL    C20   27  -0.282  -0.112  -0.013
    1UNL    C21   28  -0.357  -0.219  -0.105
    1UNL     O8   29  -0.497  -0.212  -0.087
    1UNL    C22   30  -0.316  -0.165   0.134
    1UNL     O9   31  -0.308  -0.050   0.220
    1UNL    C23   32  -0.200  -0.264   0.176
    1UNL    O10   33  -0.185  -0.371   0.087
    1UNL    C24   34  -0.062  -0.187   0.173
    1UNL    O11   35   0.046  -0.276   0.158
    1UNL     H1   36   0.051   0.662  -0.175
    1UNL     H2   37   0.170   0.624  -0.304
    1UNL     H3   38   0.208   0.595  -0.134
    1UNL     H4   39  -0.132   0.491  -0.070
    1UNL     H5   40  -0.154   0.353  -0.179
    1UNL     H6   41  -0.290   0.230   0.159
    1UNL     H7   42  -0.327   0.248  -0.011
    1UNL     H8   43  -0.318   0.388   0.109
    1UNL     H9   44   0.148   0.359   0.200
    1UNL    H10   45   0.317   0.154   0.107
    1UNL    H11   46   0.178   0.066   0.187
    1UNL    H12   47   0.413  -0.345   0.159
    1UNL    H13   48   0.430  -0.552   0.039
    1UNL    H14   49   0.366  -0.564  -0.193
    1UNL    H15   50   0.264  -0.360  -0.315
    1UNL    H16   51   0.238  -0.158  -0.182
    1UNL    H17   52   0.199   0.210  -0.160
    1UNL    H18   53   0.027   0.030  -0.155
    1UNL    H19   54  -0.089   0.160  -0.205
    1UNL    H20   55   0.035  -0.072   0.002
    1UNL    H21   56  -0.338  -0.013  -0.033
    1UNL    H22   57  -0.342  -0.204  -0.214
    1UNL    H23   58  -0.325  -0.317  -0.081
    1UNL    H24   59  -0.534  -0.303  -0.100
    1UNL    H25   60  -0.415  -0.217   0.139
    1UNL    H26   61  -0.242   0.014   0.188
    1UNL    H27   62  -0.228  -0.308   0.275
    1UNL    H28   63  -0.092  -0.366   0.057
    1UNL    H29   64  -0.040  -0.124   0.257
    1UNL    H30   65   0.130  -0.227   0.186
   0.00000   0.00000   0.00000   0.00000   0.00000   0.00000   0.00000   0.00000   0.00000
Generated with MDTraj, t= 41.0
 65
    1UNL     C1    1   0.105   0.611  -0.196
    1UNL     O1    2   0.108   0.470  -0.227
    1UNL     C2    3   0.075   0.395  -0.113
    1UNL     C3    4  -0.080   0.395  -0.080
    1UNL     C4    5  -0.108   0.297   0.036
    1UNL     C5    6  -0.245   0.269   0.089
    1UNL     O2    7  -0.023   0.357   0.145
    1UNL     C6    8   0.111   0.346   0.106
    1UNL     O3    9   0.140   0.445   0.007
    1UNL     C7   10   0.116   0.208   0.030
    1UNL     C8   11   0.226   0.114   0.086
    1UNL     O4   12   0.241  -0.001  -0.002
    1UNL     C9   13   0.268  -0.111   0.071
    1UNL     O5   14   0.261  -0.113   0.193
    1UNL    C10   15   0.295  -0.232  -0.004
    1UNL    C11   16   0.363  -0.332   0.056
    1UNL    C12   17   0.394  -0.448  -0.016
    1UNL    C13   18   0.353  -0.459  -0.146
    1UNL    C14   19   0.288  -0.354  -0.209
    1UNL    C15   20   0.254  -0.239  -0.134
    1UNL    C16   21   0.122   0.241  -0.125
    1UNL    C17   22   0.009   0.135  -0.143
    1UNL    C18   23  -0.035   0.161   0.012
    1UNL     O6   24  -0.078   0.052   0.095
    1UNL    C19   25  -0.057  -0.085   0.043
    1UNL     O7   26  -0.145  -0.126  -0.062
    1UNL    C20   27  -0.285  -0.137  -0.024
    1UNL    C21   28  -0.361  -0.232  -0.118
    1UNL     O8   29  -0.491  -0.251  -0.064
    1UNL    C22   30  -0.303  -0.168   0.129
    1UNL     O9   31  -0.318  -0.039   0.199
    1UNL    C23   32  -0.197  -0.262   0.187
    1UNL    O10   33  -0.182  -0.388   0.125
    1UNL    C24   34  -0.066  -0.181   0.169
    1UNL    O11   35   0.032  -0.280   0.166
    1UNL     H1   36   0.010   0.645  -0.146
    1UNL     H2   37   0.111   0.656  -0.292
    1UNL     H3   38   0.187   0.646  -0.138
    1UNL     H4   39  -0.118   0.490  -0.052
    1UNL     H5   40  -0.137   0.354  -0.174
    1UNL     H6   41  -0.241   0.225   0.189
    1UNL     H7   42  -0.311   0.199   0.030
    1UNL     H8   43  -0.298   0.363   0.111
    1UNL     H9   44   0.180   0.357   0.190
    1UNL    H10   45   0.325   0.168   0.100
    1UNL    H11   46   0.199   0.065   0.175
    1UNL    H12   47   0.371  -0.323   0.169
    1UNL    H13   48   0.439  -0.531   0.036
    1UNL    H14   49   0.376  -0.552  -0.209
    1UNL    H15   50   0.254  -0.352  -0.319
    1UNL    H16   51   0.201  -0.153  -0.170
    1UNL    H17   52   0.216   0.213  -0.164
    1UNL    H18   53   0.036   0.031  -0.153
    1UNL    H19   54  -0.059   0.166  -0.234
    1UNL    H20   55   0.042  -0.095   0.000
    1UNL    H21   56  -0.322  -0.027  -0.028
    1UNL    H22   57  -0.370  -0.184  -0.216
    1UNL    H23   58  -0.311  -0.322  -0.119
    1UNL    H24   59  -0.502  -0.317   0.010
    1UNL    H25   60  -0.397  -0.222   0.153
    1UNL    H26   61  -0.231   0.007   0.192
    1UNL    H27   62  -0.224  -0.274   0.293
    1UNL    H28   63  -0.107  -0.382   0.061
    1UNL    H29   64  -0.036  -0.123   0.254
    1UNL    H30   65   0.113  -0.231   0.205
   0.00000   0.00000   0.00000   0.00000   0.00000   0.00000   0.00000   0.00000   0.00000
Generated with MDTraj, t= 42.0
 65
    1UNL     C1    1   0.099   0.609  -0.212
    1UNL     O1    2   0.098   0.468  -0.233
    1UNL     C2    3   0.067   0.400  -0.110
    1UNL     C3    4  -0.085   0.396  -0.080
    1UNL     C4    5  -0.113   0.298   0.041
    1UNL     C5    6  -0.259   0.275   0.073
    1UNL     O2    7  -0.041   0.362   0.149
    1UNL     C6    8   0.101   0.352   0.114
    1UNL     O3    9   0.127   0.445   0.013
    1UNL     C7   10   0.119   0.208   0.043
    1UNL     C8   11   0.226   0.107   0.094
    1UNL     O4   12   0.247  -0.001   0.001
    1UNL     C9   13   0.282  -0.117   0.065
    1UNL     O5   14   0.307  -0.125   0.186
    1UNL    C10   15   0.305  -0.241  -0.020
    1UNL    C11   16   0.369  -0.347   0.037
    1UNL    C12   17   0.393  -0.467  -0.030
    1UNL    C13   18   0.348  -0.472  -0.164
    1UNL    C14   19   0.284  -0.360  -0.221
    1UNL    C15   20   0.263  -0.247  -0.146
    1UNL    C16   21   0.118   0.247  -0.120
    1UNL    C17   22   0.012   0.137  -0.127
    1UNL    C18   23  -0.027   0.163   0.019
    1UNL     O6   24  -0.068   0.050   0.107
    1UNL    C19   25  -0.059  -0.083   0.063
    1UNL     O7   26  -0.143  -0.105  -0.046
    1UNL    C20   27  -0.288  -0.129  -0.021
    1UNL    C21   28  -0.319  -0.258  -0.100
    1UNL     O8   29  -0.462  -0.273  -0.107
    1UNL    C22   30  -0.316  -0.147   0.131
    1UNL     O9   31  -0.318  -0.022   0.195
    1UNL    C23   32  -0.216  -0.238   0.196
    1UNL    O10   33  -0.214  -0.367   0.134
    1UNL    C24   34  -0.074  -0.178   0.182
    1UNL    O11   35   0.018  -0.286   0.182
    1UNL     H1   36  -0.002   0.651  -0.237
    1UNL     H2   37   0.164   0.644  -0.289
    1UNL     H3   38   0.142   0.639  -0.119
    1UNL     H4   39  -0.115   0.499  -0.036
    1UNL     H5   40  -0.151   0.381  -0.166
    1UNL     H6   41  -0.270   0.209   0.164
    1UNL     H7   42  -0.303   0.219  -0.006
    1UNL     H8   43  -0.311   0.368   0.098
    1UNL     H9   44   0.174   0.361   0.198
    1UNL    H10   45   0.328   0.152   0.104
    1UNL    H11   46   0.199   0.063   0.185
    1UNL    H12   47   0.398  -0.344   0.134
    1UNL    H13   48   0.443  -0.544   0.031
    1UNL    H14   49   0.359  -0.561  -0.225
    1UNL    H15   50   0.267  -0.359  -0.320
    1UNL    H16   51   0.220  -0.159  -0.198
    1UNL    H17   52   0.207   0.252  -0.178
    1UNL    H18   53   0.052   0.033  -0.151
    1UNL    H19   54  -0.072   0.163  -0.193
    1UNL    H20   55   0.042  -0.096   0.015
    1UNL    H21   56  -0.349  -0.042  -0.068
    1UNL    H22   57  -0.282  -0.250  -0.200
    1UNL    H23   58  -0.271  -0.337  -0.054
    1UNL    H24   59  -0.505  -0.286  -0.020
    1UNL    H25   60  -0.414  -0.197   0.134
    1UNL    H26   61  -0.234   0.016   0.160
    1UNL    H27   62  -0.236  -0.244   0.302
    1UNL    H28   63  -0.122  -0.395   0.112
    1UNL    H29   64  -0.045  -0.124   0.272
    1UNL    H30   65   0.107  -0.251   0.194
   0.00000   0.00000   0.00000   0.00000   0.00000   0.00000   0.00000   0.00000   0.00000
Generated with MDTraj, t= 43.0
 65
    1UNL     C1    1   0.093   0.577  -0.211
    1UNL     O1    2   0.090   0.437  -0.236
    1UNL     C2    3   0.072   0.375  -0.115
    1UNL     C3    4  -0.079   0.388  -0.081
    1UNL     C4    5  -0.114   0.305   0.051
    1UNL     C5    6  -0.262   0.298   0.086
    1UNL     O2    7  -0.032   0.365   0.151
    1UNL     C6    8   0.111   0.342   0.111
    1UNL     O3    9   0.137   0.430   0.002
    1UNL     C7   10   0.105   0.195   0.050
    1UNL     C8   11   0.215   0.099   0.097
    1UNL     O4   12   0.237   0.000   0.001
    1UNL     C9   13   0.278  -0.120   0.061
    1UNL     O5   14   0.288  -0.137   0.183
    1UNL    C10   15   0.318  -0.228  -0.032
    1UNL    C11   16   0.378  -0.340   0.027
    1UNL    C12   17   0.385  -0.459  -0.050
    1UNL    C13   18   0.335  -0.462  -0.178
    1UNL    C14   19   0.281  -0.350  -0.239
    1UNL    C15   20   0.275  -0.232  -0.165
    1UNL    C16   21   0.109   0.225  -0.102
    1UNL    C17   22  -0.007   0.121  -0.114
    1UNL    C18   23  -0.039   0.159   0.030
    1UNL     O6   24  -0.094   0.058   0.119
    1UNL    C19   25  -0.052  -0.070   0.083
    1UNL     O7   26  -0.117  -0.114  -0.036
    1UNL    C20   27  -0.266  -0.134  -0.022
    1UNL    C21   28  -0.298  -0.254  -0.118
    1UNL     O8   29  -0.436  -0.253  -0.151
    1UNL    C22   30  -0.316  -0.145   0.123
    1UNL     O9   31  -0.355  -0.018   0.175
    1UNL    C23   32  -0.216  -0.218   0.209
    1UNL    O10   33  -0.199  -0.357   0.170
    1UNL    C24   34  -0.070  -0.164   0.205
    1UNL    O11   35   0.027  -0.268   0.206
    1UNL     H1   36  -0.012   0.613  -0.206
    1UNL     H2   37   0.137   0.620  -0.301
    1UNL     H3   38   0.161   0.599  -0.130
    1UNL     H4   39  -0.111   0.501  -0.065
    1UNL     H5   40  -0.127   0.363  -0.171
    1UNL     H6   41  -0.287   0.236   0.177
    1UNL     H7   42  -0.300   0.248   0.000
    1UNL     H8   43  -0.293   0.401   0.099
    1UNL     H9   44   0.189   0.361   0.191
    1UNL    H10   45   0.311   0.149   0.112
    1UNL    H11   46   0.193   0.045   0.182
    1UNL    H12   47   0.406  -0.318   0.137
    1UNL    H13   48   0.421  -0.547  -0.003
    1UNL    H14   49   0.348  -0.550  -0.229
    1UNL    H15   50   0.258  -0.344  -0.351
    1UNL    H16   51   0.240  -0.142  -0.203
    1UNL    H17   52   0.200   0.204  -0.151
    1UNL    H18   53   0.025   0.009  -0.136
    1UNL    H19   54  -0.082   0.153  -0.179
    1UNL    H20   55   0.051  -0.055   0.043
    1UNL    H21   56  -0.313  -0.039  -0.065
    1UNL    H22   57  -0.240  -0.235  -0.207
    1UNL    H23   58  -0.266  -0.345  -0.081
    1UNL    H24   59  -0.476  -0.309  -0.081
    1UNL    H25   60  -0.408  -0.206   0.120
    1UNL    H26   61  -0.275   0.038   0.158
    1UNL    H27   62  -0.253  -0.205   0.309
    1UNL    H28   63  -0.109  -0.391   0.155
    1UNL    H29   64  -0.060  -0.097   0.294
    1UNL    H30   65   0.120  -0.241   0.186
   0.00000   0.00000   0.00000   0.00000   0.00000   0.00000   0.00000   0.00000   0.00000
Generated with MDTraj, t= 44.0
 65
    1UNL     C1    1   0.126   0.565  -0.248
    1UNL     O1    2   0.091   0.429  -0.245
    1UNL     C2    3   0.064   0.379  -0.117
    1UNL     C3    4  -0.088   0.393  -0.074
    1UNL     C4    5  -0.107   0.312   0.055
    1UNL     C5    6  -0.252   0.313   0.111
    1UNL     O2    7  -0.017   0.378   0.152
    1UNL     C6    8   0.120   0.349   0.104
    1UNL     O3    9   0.144   0.435  -0.015
    1UNL     C7   10   0.110   0.204   0.042
    1UNL     C8   11   0.224   0.107   0.085
    1UNL     O4   12   0.227  -0.001   0.001
    1UNL     C9   13   0.259  -0.119   0.064
    1UNL     O5   14   0.264  -0.132   0.184
    1UNL    C10   15   0.287  -0.240  -0.024
    1UNL    C11   16   0.353  -0.354   0.019
    1UNL    C12   17   0.386  -0.447  -0.073
    1UNL    C13   18   0.360  -0.430  -0.212
    1UNL    C14   19   0.288  -0.316  -0.252
    1UNL    C15   20   0.253  -0.223  -0.159
    1UNL    C16   21   0.101   0.221  -0.117
    1UNL    C17   22  -0.024   0.127  -0.110
    1UNL    C18   23  -0.043   0.166   0.039
    1UNL     O6   24  -0.094   0.058   0.127
    1UNL    C19   25  -0.057  -0.079   0.105
    1UNL     O7   26  -0.093  -0.143  -0.017
    1UNL    C20   27  -0.242  -0.149  -0.023
    1UNL    C21   28  -0.282  -0.248  -0.130
    1UNL     O8   29  -0.413  -0.221  -0.176
    1UNL    C22   30  -0.313  -0.176   0.112
    1UNL     O9   31  -0.365  -0.050   0.152
    1UNL    C23   32  -0.224  -0.244   0.219
    1UNL    O10   33  -0.192  -0.384   0.187
    1UNL    C24   34  -0.088  -0.165   0.239
    1UNL    O11   35   0.010  -0.263   0.274
    1UNL     H1   36   0.032   0.622  -0.241
    1UNL     H2   37   0.164   0.584  -0.352
    1UNL     H3   38   0.213   0.587  -0.184
    1UNL     H4   39  -0.109   0.498  -0.061
    1UNL     H5   40  -0.162   0.357  -0.146
    1UNL     H6   41  -0.243   0.268   0.206
    1UNL     H7   42  -0.315   0.249   0.049
    1UNL     H8   43  -0.278   0.418   0.121
    1UNL     H9   44   0.203   0.372   0.179
    1UNL    H10   45   0.331   0.138   0.081
    1UNL    H11   46   0.206   0.068   0.178
    1UNL    H12   47   0.351  -0.382   0.118
    1UNL    H13   48   0.426  -0.542  -0.040
    1UNL    H14   49   0.406  -0.503  -0.291
    1UNL    H15   50   0.265  -0.300  -0.353
    1UNL    H16   51   0.195  -0.135  -0.200
    1UNL    H17   52   0.187   0.198  -0.174
    1UNL    H18   53   0.004   0.021  -0.119
    1UNL    H19   54  -0.102   0.161  -0.180
    1UNL    H20   55   0.057  -0.082   0.101
    1UNL    H21   56  -0.271  -0.044  -0.049
    1UNL    H22   57  -0.220  -0.247  -0.220
    1UNL    H23   58  -0.280  -0.345  -0.094
    1UNL    H24   59  -0.444  -0.129  -0.155
    1UNL    H25   60  -0.398  -0.242   0.097
    1UNL    H26   61  -0.291   0.016   0.153
    1UNL    H27   62  -0.270  -0.246   0.317
    1UNL    H28   63  -0.117  -0.426   0.235
    1UNL    H29   64  -0.093  -0.112   0.340
    1UNL    H30   65   0.098  -0.212   0.271
   0.00000   0.00000   0.00000   0.00000   0.00000   0.00000   0.00000   0.00000   0.00000
Generated with MDTraj, t= 45.0
 65
    1UNL     C1    1   0.129   0.542  -0.251
    1UNL     O1    2   0.080   0.409  -0.256
    1UNL     C2    3   0.056   0.362  -0.125
    1UNL     C3    4  -0.100   0.378  -0.083
    1UNL     C4    5  -0.109   0.305   0.059
    1UNL     C5    6  -0.245   0.296   0.125
    1UNL     O2    7  -0.021   0.368   0.148
    1UNL     C6    8   0.108   0.347   0.101
    1UNL     O3    9   0.138   0.425  -0.018
    1UNL     C7   10   0.104   0.195   0.046
    1UNL     C8   11   0.208   0.096   0.096
    1UNL     O4   12   0.236  -0.008   0.006
    1UNL     C9   13   0.257  -0.131   0.057
    1UNL     O5   14   0.253  -0.150   0.175
    1UNL    C10   15   0.294  -0.236  -0.040
    1UNL    C11   16   0.347  -0.360  -0.004
    1UNL    C12   17   0.385  -0.455  -0.094
    1UNL    C13   18   0.359  -0.432  -0.226
    1UNL    C14   19   0.297  -0.319  -0.265
    1UNL    C15   20   0.259  -0.219  -0.175
    1UNL    C16   21   0.093   0.208  -0.109
    1UNL    C17   22  -0.022   0.114  -0.105
    1UNL    C18   23  -0.050   0.155   0.047
    1UNL     O6   24  -0.100   0.069   0.147
    1UNL    C19   25  -0.057  -0.062   0.132
    1UNL     O7   26  -0.090  -0.119   0.011
    1UNL    C20   27  -0.235  -0.120  -0.017
    1UNL    C21   28  -0.248  -0.224  -0.126
    1UNL     O8   29  -0.370  -0.218  -0.195
    1UNL    C22   30  -0.325  -0.166   0.106
    1UNL     O9   31  -0.372  -0.044   0.166
    1UNL    C23   32  -0.224  -0.238   0.204
    1UNL    O10   33  -0.161  -0.354   0.152
    1UNL    C24   34  -0.107  -0.150   0.259
    1UNL    O11   35  -0.007  -0.221   0.319
    1UNL     H1   36   0.080   0.590  -0.166
    1UNL     H2   37   0.104   0.606  -0.342
    1UNL     H3   38   0.240   0.535  -0.247
    1UNL     H4   39  -0.134   0.471  -0.069
    1UNL     H5   40  -0.173   0.332  -0.153
    1UNL     H6   41  -0.227   0.240   0.211
    1UNL     H7   42  -0.311   0.230   0.065
    1UNL     H8   43  -0.281   0.394   0.150
    1UNL     H9   44   0.172   0.366   0.193
    1UNL    H10   45   0.299   0.158   0.123
    1UNL    H11   46   0.186   0.044   0.183
    1UNL    H12   47   0.345  -0.371   0.107
    1UNL    H13   48   0.417  -0.551  -0.058
    1UNL    H14   49   0.393  -0.504  -0.292
    1UNL    H15   50   0.286  -0.309  -0.373
    1UNL    H16   51   0.215  -0.127  -0.192
    1UNL    H17   52   0.181   0.180  -0.159
    1UNL    H18   53   0.011   0.018  -0.100
    1UNL    H19   54  -0.096   0.150  -0.188
    1UNL    H20   55   0.054  -0.045   0.136
    1UNL    H21   56  -0.266  -0.021  -0.055
    1UNL    H22   57  -0.164  -0.216  -0.199
    1UNL    H23   58  -0.240  -0.324  -0.088
    1UNL    H24   59  -0.415  -0.130  -0.204
    1UNL    H25   60  -0.409  -0.229   0.083
    1UNL    H26   61  -0.300   0.022   0.157
    1UNL    H27   62  -0.280  -0.264   0.295
    1UNL    H28   63  -0.080  -0.380   0.200
    1UNL    H29   64  -0.150  -0.076   0.333
    1UNL    H30   65   0.081  -0.199   0.286
   0.00000   0.00000   0.00000   0.00000   0.00000   0.00000   0.00000   0.00000   0.00000
Generated with MDTraj, t= 46.0
 65
    1UNL     C1    1   0.120   0.529  -0.259
    1UNL     O1    2   0.073   0.398  -0.250
    1UNL     C2    3   0.053   0.360  -0.117
    1UNL     C3    4  -0.093   0.385  -0.078
    1UNL     C4    5  -0.115   0.310   0.058
    1UNL     C5    6  -0.258   0.318   0.108
    1UNL     O2    7  -0.023   0.380   0.151
    1UNL     C6    8   0.106   0.352   0.101
    1UNL     O3    9   0.136   0.422  -0.019
    1UNL     C7   10   0.103   0.193   0.054
    1UNL     C8   11   0.213   0.097   0.099
    1UNL     O4   12   0.230  -0.002  -0.002
    1UNL     C9   13   0.244  -0.128   0.045
    1UNL     O5   14   0.227  -0.153   0.163
    1UNL    C10   15   0.296  -0.232  -0.049
    1UNL    C11   16   0.342  -0.357  -0.004
    1UNL    C12   17   0.367  -0.456  -0.089
    1UNL    C13   18   0.349  -0.439  -0.224
    1UNL    C14   19   0.299  -0.317  -0.271
    1UNL    C15   20   0.278  -0.217  -0.183
    1UNL    C16   21   0.095   0.202  -0.104
    1UNL    C17   22  -0.031   0.110  -0.092
    1UNL    C18   23  -0.047   0.157   0.056
    1UNL     O6   24  -0.103   0.073   0.153
    1UNL    C19   25  -0.057  -0.060   0.143
    1UNL     O7   26  -0.076  -0.123   0.019
    1UNL    C20   27  -0.213  -0.130  -0.016
    1UNL    C21   28  -0.232  -0.227  -0.134
    1UNL     O8   29  -0.356  -0.208  -0.195
    1UNL    C22   30  -0.305  -0.159   0.105
    1UNL     O9   31  -0.360  -0.033   0.156
    1UNL    C23   32  -0.228  -0.244   0.210
    1UNL    O10   33  -0.167  -0.361   0.160
    1UNL    C24   34  -0.106  -0.156   0.265
    1UNL    O11   35  -0.004  -0.235   0.315
    1UNL     H1   36   0.046   0.599  -0.225
    1UNL     H2   37   0.156   0.561  -0.364
    1UNL     H3   38   0.212   0.529  -0.198
    1UNL     H4   39  -0.103   0.493  -0.068
    1UNL     H5   40  -0.161   0.344  -0.150
    1UNL     H6   41  -0.274   0.260   0.198
    1UNL     H7   42  -0.326   0.265   0.044
    1UNL     H8   43  -0.288   0.418   0.119
    1UNL     H9   44   0.190   0.373   0.173
    1UNL    H10   45   0.317   0.144   0.115
    1UNL    H11   46   0.186   0.059   0.193
    1UNL    H12   47   0.344  -0.380   0.103
    1UNL    H13   48   0.408  -0.550  -0.053
    1UNL    H14   49   0.368  -0.526  -0.284
    1UNL    H15   50   0.315  -0.295  -0.377
    1UNL    H16   51   0.244  -0.121  -0.229
    1UNL    H17   52   0.193   0.175  -0.135
    1UNL    H18   53   0.001   0.010  -0.094
    1UNL    H19   54  -0.111   0.131  -0.170
    1UNL    H20   55   0.050  -0.050   0.161
    1UNL    H21   56  -0.243  -0.031  -0.053
    1UNL    H22   57  -0.149  -0.197  -0.204
    1UNL    H23   58  -0.205  -0.327  -0.099
    1UNL    H24   59  -0.419  -0.269  -0.151
    1UNL    H25   60  -0.385  -0.221   0.069
    1UNL    H26   61  -0.281   0.025   0.164
    1UNL    H27   62  -0.297  -0.272   0.294
    1UNL    H28   63  -0.083  -0.335   0.113
    1UNL    H29   64  -0.149  -0.115   0.359
    1UNL    H30   65   0.072  -0.217   0.249
   0.00000   0.00000   0.00000   0.00000   0.00000   0.00000   0.00000   0.00000   0.00000
Generated with MDTraj, t= 47.0
 65
    1UNL     C1    1   0.104   0.551  -0.252
    1UNL     O1    2   0.073   0.418  -0.253
    1UNL     C2    3   0.058   0.366  -0.123
    1UNL     C3    4  -0.090   0.384  -0.074
    1UNL     C4    5  -0.102   0.307   0.064
    1UNL     C5    6  -0.252   0.305   0.108
    1UNL     O2    7  -0.015   0.375   0.153
    1UNL     C6    8   0.124   0.346   0.098
    1UNL     O3    9   0.141   0.432  -0.022
    1UNL     C7   10   0.114   0.195   0.052
    1UNL     C8   11   0.233   0.105   0.086
    1UNL     O4   12   0.248   0.004  -0.011
    1UNL     C9   13   0.248  -0.122   0.057
    1UNL     O5   14   0.252  -0.130   0.179
    1UNL    C10   15   0.261  -0.238  -0.031
    1UNL    C11   16   0.299  -0.366   0.012
    1UNL    C12   17   0.346  -0.455  -0.085
    1UNL    C13   18   0.345  -0.427  -0.216
    1UNL    C14   19   0.312  -0.303  -0.264
    1UNL    C15   20   0.263  -0.212  -0.170
    1UNL    C16   21   0.097   0.217  -0.108
    1UNL    C17   22  -0.014   0.118  -0.099
    1UNL    C18   23  -0.038   0.161   0.045
    1UNL     O6   24  -0.097   0.064   0.142
    1UNL    C19   25  -0.057  -0.069   0.129
    1UNL     O7   26  -0.082  -0.132   0.009
    1UNL    C20   27  -0.219  -0.139  -0.023
    1UNL    C21   28  -0.251  -0.247  -0.128
    1UNL     O8   29  -0.364  -0.215  -0.204
    1UNL    C22   30  -0.305  -0.177   0.106
    1UNL     O9   31  -0.369  -0.057   0.146
    1UNL    C23   32  -0.226  -0.240   0.216
    1UNL    O10   33  -0.184  -0.376   0.185
    1UNL    C24   34  -0.101  -0.155   0.251
    1UNL    O11   35   0.000  -0.240   0.298
    1UNL     H1   36   0.016   0.608  -0.243
    1UNL     H2   37   0.172   0.583  -0.338
    1UNL     H3   38   0.162   0.567  -0.162
    1UNL     H4   39  -0.102   0.500  -0.062
    1UNL     H5   40  -0.150   0.353  -0.151
    1UNL     H6   41  -0.259   0.253   0.206
    1UNL     H7   42  -0.316   0.234   0.067
    1UNL     H8   43  -0.304   0.396   0.120
    1UNL     H9   44   0.205   0.374   0.168
    1UNL    H10   45   0.326   0.175   0.086
    1UNL    H11   46   0.233   0.059   0.182
    1UNL    H12   47   0.293  -0.390   0.114
    1UNL    H13   48   0.373  -0.556  -0.060
    1UNL    H14   49   0.404  -0.490  -0.293
    1UNL    H15   50   0.330  -0.283  -0.367
    1UNL    H16   51   0.252  -0.111  -0.202
    1UNL    H17   52   0.182   0.191  -0.167
    1UNL    H18   53   0.024   0.012  -0.095
    1UNL    H19   54  -0.094   0.128  -0.166
    1UNL    H20   55   0.047  -0.055   0.136
    1UNL    H21   56  -0.252  -0.041  -0.052
    1UNL    H22   57  -0.160  -0.249  -0.197
    1UNL    H23   58  -0.251  -0.349  -0.079
    1UNL    H24   59  -0.432  -0.184  -0.141
    1UNL    H25   60  -0.385  -0.246   0.081
    1UNL    H26   61  -0.297   0.010   0.139
    1UNL    H27   62  -0.285  -0.242   0.312
    1UNL    H28   63  -0.111  -0.403   0.244
    1UNL    H29   64  -0.128  -0.090   0.334
    1UNL    H30   65   0.091  -0.214   0.278
   0.00000   0.00000   0.00000   0.00000   0.00000   0.00000   0.00000   0.00000   0.00000
Generated with MDTraj, t= 48.0
 65
    1UNL     C1    1   0.077   0.575  -0.240
    1UNL     O1    2   0.088   0.439  -0.244
    1UNL     C2    3   0.058   0.379  -0.121
    1UNL     C3    4  -0.089   0.381  -0.076
    1UNL     C4    5  -0.110   0.304   0.055
    1UNL     C5    6  -0.245   0.292   0.119
    1UNL     O2    7  -0.027   0.371   0.149
    1UNL     C6    8   0.112   0.350   0.109
    1UNL     O3    9   0.131   0.435  -0.009
    1UNL     C7   10   0.109   0.197   0.045
    1UNL     C8   11   0.212   0.100   0.104
    1UNL     O4   12   0.242   0.004   0.005
    1UNL     C9   13   0.275  -0.117   0.064
    1UNL     O5   14   0.268  -0.143   0.183
    1UNL    C10   15   0.305  -0.236  -0.031
    1UNL    C11   16   0.317  -0.362   0.017
    1UNL    C12   17   0.306  -0.468  -0.072
    1UNL    C13   18   0.296  -0.449  -0.205
    1UNL    C14   19   0.301  -0.320  -0.248
    1UNL    C15   20   0.312  -0.212  -0.169
    1UNL    C16   21   0.107   0.229  -0.115
    1UNL    C17   22  -0.010   0.121  -0.120
    1UNL    C18   23  -0.040   0.157   0.028
    1UNL     O6   24  -0.095   0.059   0.121
    1UNL    C19   25  -0.039  -0.072   0.110
    1UNL     O7   26  -0.083  -0.143  -0.006
    1UNL    C20   27  -0.227  -0.143  -0.031
    1UNL    C21   28  -0.257  -0.256  -0.134
    1UNL     O8   29  -0.381  -0.241  -0.198
    1UNL    C22   30  -0.310  -0.163   0.112
    1UNL     O9   31  -0.350  -0.034   0.156
    1UNL    C23   32  -0.221  -0.226   0.213
    1UNL    O10   33  -0.187  -0.364   0.185
    1UNL    C24   34  -0.085  -0.150   0.238
    1UNL    O11   35   0.015  -0.243   0.283
    1UNL     H1   36   0.014   0.608  -0.165
    1UNL     H2   37   0.054   0.621  -0.341
    1UNL     H3   38   0.172   0.612  -0.207
    1UNL     H4   39  -0.102   0.495  -0.062
    1UNL     H5   40  -0.149   0.344  -0.158
    1UNL     H6   41  -0.260   0.230   0.208
    1UNL     H7   42  -0.304   0.238   0.052
    1UNL     H8   43  -0.295   0.384   0.126
    1UNL     H9   44   0.181   0.364   0.192
    1UNL    H10   45   0.308   0.147   0.154
    1UNL    H11   46   0.163   0.056   0.191
    1UNL    H12   47   0.297  -0.388   0.124
    1UNL    H13   48   0.294  -0.567  -0.029
    1UNL    H14   49   0.286  -0.523  -0.272
    1UNL    H15   50   0.303  -0.296  -0.358
    1UNL    H16   51   0.300  -0.110  -0.206
    1UNL    H17   52   0.193   0.201  -0.170
    1UNL    H18   53   0.033   0.015  -0.114
    1UNL    H19   54  -0.087   0.126  -0.186
    1UNL    H20   55   0.067  -0.060   0.119
    1UNL    H21   56  -0.261  -0.051  -0.067
    1UNL    H22   57  -0.177  -0.257  -0.216
    1UNL    H23   58  -0.257  -0.364  -0.096
    1UNL    H24   59  -0.459  -0.235  -0.138
    1UNL    H25   60  -0.394  -0.232   0.096
    1UNL    H26   61  -0.272   0.026   0.156
    1UNL    H27   62  -0.282  -0.225   0.308
    1UNL    H28   63  -0.101  -0.368   0.135
    1UNL    H29   64  -0.097  -0.081   0.320
    1UNL    H30   65   0.105  -0.208   0.248
   0.00000   0.00000   0.00000   0.00000   0.00000   0.00000   0.00000   0.00000   0.00000
Generated with MDTraj, t= 49.0
 65
    1UNL     C1    1   0.108   0.578  -0.221
    1UNL     O1    2   0.090   0.441  -0.236
    1UNL     C2    3   0.057   0.381  -0.112
    1UNL     C3    4  -0.099   0.384  -0.082
    1UNL     C4    5  -0.115   0.300   0.048
    1UNL     C5    6  -0.263   0.278   0.089
    1UNL     O2    7  -0.039   0.363   0.153
    1UNL     C6    8   0.103   0.349   0.108
    1UNL     O3    9   0.122   0.445  -0.001
    1UNL     C7   10   0.117   0.203   0.048
    1UNL     C8   11   0.235   0.120   0.084
    1UNL     O4   12   0.248   0.012  -0.002
    1UNL     C9   13   0.275  -0.109   0.062
    1UNL     O5   14   0.300  -0.113   0.181
    1UNL    C10   15   0.281  -0.231  -0.022
    1UNL    C11   16   0.267  -0.355   0.031
    1UNL    C12   17   0.284  -0.472  -0.050
    1UNL    C13   18   0.307  -0.456  -0.181
    1UNL    C14   19   0.303  -0.332  -0.232
    1UNL    C15   20   0.285  -0.220  -0.155
    1UNL    C16   21   0.104   0.223  -0.111
    1UNL    C17   22  -0.007   0.120  -0.111
    1UNL    C18   23  -0.042   0.158   0.037
    1UNL     O6   24  -0.075   0.059   0.137
    1UNL    C19   25  -0.039  -0.072   0.095
    1UNL     O7   26  -0.090  -0.119  -0.029
    1UNL    C20   27  -0.233  -0.137  -0.038
    1UNL    C21   28  -0.267  -0.261  -0.122
    1UNL     O8   29  -0.408  -0.268  -0.165
    1UNL    C22   30  -0.299  -0.155   0.110
    1UNL     O9   31  -0.335  -0.029   0.161
    1UNL    C23   32  -0.209  -0.235   0.205
    1UNL    O10   33  -0.187  -0.366   0.145
    1UNL    C24   34  -0.066  -0.166   0.221
    1UNL    O11   35   0.034  -0.269   0.238
    1UNL     H1   36   0.020   0.632  -0.212
    1UNL     H2   37   0.176   0.623  -0.301
    1UNL     H3   38   0.152   0.599  -0.126
    1UNL     H4   39  -0.134   0.486  -0.067
    1UNL     H5   40  -0.153   0.342  -0.181
    1UNL     H6   41  -0.269   0.220   0.176
    1UNL     H7   42  -0.336   0.226   0.030
    1UNL     H8   43  -0.310   0.372   0.105
    1UNL     H9   44   0.173   0.373   0.187
    1UNL    H10   45   0.332   0.188   0.075
    1UNL    H11   46   0.237   0.084   0.187
    1UNL    H12   47   0.254  -0.373   0.132
    1UNL    H13   48   0.265  -0.574  -0.013
    1UNL    H14   49   0.321  -0.547  -0.247
    1UNL    H15   50   0.313  -0.324  -0.334
    1UNL    H16   51   0.292  -0.119  -0.198
    1UNL    H17   52   0.197   0.207  -0.160
    1UNL    H18   53   0.027   0.016  -0.119
    1UNL    H19   54  -0.091   0.144  -0.174
    1UNL    H20   55   0.072  -0.065   0.092
    1UNL    H21   56  -0.267  -0.047  -0.077
    1UNL    H22   57  -0.209  -0.272  -0.219
    1UNL    H23   58  -0.237  -0.352  -0.059
    1UNL    H24   59  -0.464  -0.239  -0.089
    1UNL    H25   60  -0.388  -0.221   0.099
    1UNL    H26   61  -0.257   0.022   0.186
    1UNL    H27   62  -0.265  -0.239   0.301
    1UNL    H28   63  -0.091  -0.379   0.149
    1UNL    H29   64  -0.062  -0.109   0.313
    1UNL    H30   65   0.120  -0.218   0.243
   0.00000   0.00000   0.00000   0.00000   0.00000   0.00000   0.00000   0.00000   0.00000
Generated with MDTraj, t= 50.0
 65
    1UNL     C1    1   0.117   0.587  -0.231
    1UNL     O1    2   0.082   0.453  -0.242
    1UNL     C2    3   0.060   0.393  -0.115
    1UNL     C3    4  -0.093   0.391  -0.075
    1UNL     C4    5  -0.109   0.306   0.048
    1UNL     C5    6  -0.256   0.284   0.078
    1UNL     O2    7  -0.033   0.370   0.150
    1UNL     C6    8   0.101   0.363   0.109
    1UNL     O3    9   0.134   0.452  -0.002
    1UNL     C7   10   0.121   0.214   0.039
    1UNL     C8   11   0.226   0.116   0.095
    1UNL     O4   12   0.249   0.012   0.008
    1UNL     C9   13   0.277  -0.107   0.074
    1UNL     O5   14   0.269  -0.113   0.195
    1UNL    C10   15   0.297  -0.225  -0.013
    1UNL    C11   16   0.292  -0.352   0.047
    1UNL    C12   17   0.278  -0.463  -0.031
    1UNL    C13   18   0.279  -0.460  -0.166
    1UNL    C14   19   0.288  -0.342  -0.228
    1UNL    C15   20   0.297  -0.227  -0.150
    1UNL    C16   21   0.115   0.242  -0.111
    1UNL    C17   22   0.005   0.133  -0.121
    1UNL    C18   23  -0.029   0.164   0.034
    1UNL     O6   24  -0.079   0.062   0.118
    1UNL    C19   25  -0.045  -0.072   0.082
    1UNL     O7   26  -0.108  -0.114  -0.036
    1UNL    C20   27  -0.250  -0.142  -0.032
    1UNL    C21   28  -0.291  -0.256  -0.124
    1UNL     O8   29  -0.433  -0.272  -0.146
    1UNL    C22   30  -0.299  -0.179   0.113
    1UNL     O9   31  -0.330  -0.061   0.192
    1UNL    C23   32  -0.191  -0.257   0.191
    1UNL    O10   33  -0.167  -0.380   0.124
    1UNL    C24   34  -0.060  -0.182   0.200
    1UNL    O11   35   0.040  -0.274   0.215
    1UNL     H1   36   0.049   0.639  -0.168
    1UNL     H2   37   0.132   0.638  -0.331
    1UNL     H3   38   0.208   0.599  -0.170
    1UNL     H4   39  -0.119   0.498  -0.064
    1UNL     H5   40  -0.157   0.351  -0.163
    1UNL     H6   41  -0.272   0.226   0.161
    1UNL     H7   42  -0.311   0.240  -0.003
    1UNL     H8   43  -0.299   0.380   0.083
    1UNL     H9   44   0.162   0.390   0.193
    1UNL    H10   45   0.328   0.169   0.118
    1UNL    H11   46   0.200   0.077   0.193
    1UNL    H12   47   0.285  -0.363   0.157
    1UNL    H13   48   0.281  -0.554   0.024
    1UNL    H14   49   0.264  -0.550  -0.227
    1UNL    H15   50   0.307  -0.326  -0.340
    1UNL    H16   51   0.309  -0.136  -0.201
    1UNL    H17   52   0.210   0.220  -0.155
    1UNL    H18   53   0.034   0.037  -0.146
    1UNL    H19   54  -0.079   0.161  -0.194
    1UNL    H20   55   0.064  -0.063   0.047
    1UNL    H21   56  -0.295  -0.053  -0.062
    1UNL    H22   57  -0.244  -0.233  -0.223
    1UNL    H23   58  -0.243  -0.356  -0.093
    1UNL    H24   59  -0.473  -0.297  -0.060
    1UNL    H25   60  -0.384  -0.252   0.109
    1UNL    H26   61  -0.239  -0.020   0.197
    1UNL    H27   62  -0.229  -0.273   0.292
    1UNL    H28   63  -0.081  -0.408   0.165
    1UNL    H29   64  -0.061  -0.130   0.297
    1UNL    H30   65   0.130  -0.242   0.198
   0.00000   0.00000   0.00000   0.00000   0.00000   0.00000   0.00000   0.00000   0.00000
Generated with MDTraj, t= 51.0
 65
    1UNL     C1    1   0.109   0.581  -0.216
    1UNL     O1    2   0.094   0.448  -0.240
    1UNL     C2    3   0.065   0.380  -0.119
    1UNL     C3    4  -0.089   0.385  -0.085
    1UNL     C4    5  -0.104   0.301   0.045
    1UNL     C5    6  -0.245   0.282   0.100
    1UNL     O2    7  -0.023   0.357   0.153
    1UNL     C6    8   0.108   0.346   0.103
    1UNL     O3    9   0.136   0.435  -0.004
    1UNL     C7   10   0.116   0.203   0.043
    1UNL     C8   11   0.225   0.112   0.102
    1UNL     O4   12   0.243   0.007   0.015
    1UNL     C9   13   0.297  -0.098   0.081
    1UNL     O5   14   0.326  -0.099   0.199
    1UNL    C10   15   0.292  -0.225  -0.004
    1UNL    C11   16   0.314  -0.347   0.058
    1UNL    C12   17   0.314  -0.458  -0.017
    1UNL    C13   18   0.286  -0.452  -0.156
    1UNL    C14   19   0.269  -0.328  -0.217
    1UNL    C15   20   0.268  -0.212  -0.139
    1UNL    C16   21   0.115   0.226  -0.114
    1UNL    C17   22   0.002   0.121  -0.124
    1UNL    C18   23  -0.039   0.159   0.022
    1UNL     O6   24  -0.096   0.060   0.102
    1UNL    C19   25  -0.056  -0.072   0.072
    1UNL     O7   26  -0.127  -0.125  -0.041
    1UNL    C20   27  -0.267  -0.148  -0.030
    1UNL    C21   28  -0.325  -0.252  -0.130
    1UNL     O8   29  -0.461  -0.248  -0.152
    1UNL    C22   30  -0.306  -0.183   0.112
    1UNL     O9   31  -0.336  -0.067   0.197
    1UNL    C23   32  -0.190  -0.258   0.177
    1UNL    O10   33  -0.144  -0.368   0.095
    1UNL    C24   34  -0.066  -0.170   0.195
    1UNL    O11   35   0.046  -0.242   0.218
    1UNL     H1   36   0.060   0.611  -0.124
    1UNL     H2   37   0.071   0.633  -0.308
    1UNL     H3   38   0.217   0.609  -0.200
    1UNL     H4   39  -0.119   0.493  -0.075
    1UNL     H5   40  -0.148   0.351  -0.163
    1UNL     H6   41  -0.230   0.236   0.194
    1UNL     H7   42  -0.307   0.217   0.043
    1UNL     H8   43  -0.289   0.376   0.098
    1UNL     H9   44   0.168   0.365   0.189
    1UNL    H10   45   0.327   0.161   0.127
    1UNL    H11   46   0.192   0.073   0.195
    1UNL    H12   47   0.330  -0.349   0.163
    1UNL    H13   48   0.321  -0.561   0.015
    1UNL    H14   49   0.295  -0.536  -0.215
    1UNL    H15   50   0.255  -0.329  -0.319
    1UNL    H16   51   0.253  -0.108  -0.184
    1UNL    H17   52   0.214   0.225  -0.158
    1UNL    H18   53   0.034   0.026  -0.148
    1UNL    H19   54  -0.065   0.151  -0.210
    1UNL    H20   55   0.047  -0.061   0.023
    1UNL    H21   56  -0.321  -0.061  -0.052
    1UNL    H22   57  -0.286  -0.233  -0.230
    1UNL    H23   58  -0.299  -0.358  -0.102
    1UNL    H24   59  -0.516  -0.275  -0.077
    1UNL    H25   60  -0.393  -0.253   0.110
    1UNL    H26   61  -0.258  -0.008   0.197
    1UNL    H27   62  -0.229  -0.291   0.271
    1UNL    H28   63  -0.049  -0.376   0.115
    1UNL    H29   64  -0.081  -0.118   0.294
    1UNL    H30   65   0.136  -0.199   0.194
   0.00000   0.00000   0.00000   0.00000   0.00000   0.00000   0.00000   0.00000   0.00000
Generated with MDTraj, t= 52.0
 65
    1UNL     C1    1   0.125   0.585  -0.237
    1UNL     O1    2   0.099   0.447  -0.239
    1UNL     C2    3   0.063   0.386  -0.115
    1UNL     C3    4  -0.091   0.399  -0.083
    1UNL     C4    5  -0.123   0.307   0.041
    1UNL     C5    6  -0.273   0.299   0.076
    1UNL     O2    7  -0.047   0.363   0.151
    1UNL     C6    8   0.094   0.357   0.110
    1UNL     O3    9   0.120   0.448   0.003
    1UNL     C7   10   0.107   0.212   0.043
    1UNL     C8   11   0.210   0.110   0.099
    1UNL     O4   12   0.228  -0.000   0.010
    1UNL     C9   13   0.286  -0.109   0.075
    1UNL     O5   14   0.321  -0.114   0.190
    1UNL    C10   15   0.302  -0.235  -0.003
    1UNL    C11   16   0.359  -0.357   0.049
    1UNL    C12   17   0.357  -0.477  -0.019
    1UNL    C13   18   0.303  -0.475  -0.147
    1UNL    C14   19   0.256  -0.358  -0.205
    1UNL    C15   20   0.259  -0.237  -0.142
    1UNL    C16   21   0.104   0.236  -0.110
    1UNL    C17   22  -0.009   0.128  -0.122
    1UNL    C18   23  -0.048   0.166   0.027
    1UNL     O6   24  -0.088   0.062   0.118
    1UNL    C19   25  -0.053  -0.072   0.082
    1UNL     O7   26  -0.111  -0.117  -0.038
    1UNL    C20   27  -0.257  -0.130  -0.026
    1UNL    C21   28  -0.322  -0.223  -0.130
    1UNL     O8   29  -0.457  -0.200  -0.152
    1UNL    C22   30  -0.295  -0.186   0.114
    1UNL     O9   31  -0.328  -0.078   0.200
    1UNL    C23   32  -0.181  -0.268   0.184
    1UNL    O10   33  -0.145  -0.381   0.096
    1UNL    C24   34  -0.060  -0.182   0.201
    1UNL    O11   35   0.052  -0.263   0.204
    1UNL     H1   36   0.031   0.638  -0.261
    1UNL     H2   37   0.200   0.599  -0.318
    1UNL     H3   38   0.160   0.622  -0.136
    1UNL     H4   39  -0.119   0.507  -0.073
    1UNL     H5   40  -0.141   0.369  -0.168
    1UNL     H6   41  -0.270   0.232   0.162
    1UNL     H7   42  -0.337   0.267   0.002
    1UNL     H8   43  -0.300   0.396   0.096
    1UNL     H9   44   0.162   0.367   0.193
    1UNL    H10   45   0.308   0.166   0.108
    1UNL    H11   46   0.196   0.079   0.197
    1UNL    H12   47   0.392  -0.353   0.153
    1UNL    H13   48   0.380  -0.567   0.038
    1UNL    H14   49   0.300  -0.578  -0.200
    1UNL    H15   50   0.200  -0.359  -0.301
    1UNL    H16   51   0.218  -0.152  -0.177
    1UNL    H17   52   0.191   0.231  -0.175
    1UNL    H18   53   0.023   0.024  -0.140
    1UNL    H19   54  -0.082   0.165  -0.193
    1UNL    H20   55   0.052  -0.056   0.048
    1UNL    H21   56  -0.287  -0.029  -0.043
    1UNL    H22   57  -0.276  -0.208  -0.225
    1UNL    H23   58  -0.303  -0.328  -0.098
    1UNL    H24   59  -0.506  -0.185  -0.069
    1UNL    H25   60  -0.381  -0.258   0.118
    1UNL    H26   61  -0.261  -0.008   0.182
    1UNL    H27   62  -0.218  -0.306   0.277
    1UNL    H28   63  -0.049  -0.402   0.103
    1UNL    H29   64  -0.050  -0.124   0.297
    1UNL    H30   65   0.135  -0.219   0.221
   0.00000   0.00000   0.00000   0.00000   0.00000   0.00000   0.00000   0.00000   0.00000
Generated with MDTraj, t= 53.0
 65
    1UNL     C1    1   0.108   0.582  -0.212
    1UNL     O1    2   0.090   0.444  -0.237
    1UNL     C2    3   0.054   0.373  -0.118
    1UNL     C3    4  -0.096   0.378  -0.082
    1UNL     C4    5  -0.124   0.289   0.047
    1UNL     C5    6  -0.268   0.274   0.080
    1UNL     O2    7  -0.040   0.352   0.149
    1UNL     C6    8   0.098   0.338   0.109
    1UNL     O3    9   0.122   0.430  -0.000
    1UNL     C7   10   0.105   0.203   0.039
    1UNL     C8   11   0.212   0.111   0.090
    1UNL     O4   12   0.238   0.005  -0.007
    1UNL     C9   13   0.271  -0.105   0.062
    1UNL     O5   14   0.286  -0.108   0.183
    1UNL    C10   15   0.295  -0.228  -0.011
    1UNL    C11   16   0.376  -0.324   0.045
    1UNL    C12   17   0.395  -0.447  -0.017
    1UNL    C13   18   0.333  -0.477  -0.140
    1UNL    C14   19   0.244  -0.381  -0.197
    1UNL    C15   20   0.235  -0.260  -0.130
    1UNL    C16   21   0.107   0.229  -0.115
    1UNL    C17   22  -0.006   0.117  -0.128
    1UNL    C18   23  -0.044   0.147   0.024
    1UNL     O6   24  -0.080   0.053   0.126
    1UNL    C19   25  -0.040  -0.073   0.084
    1UNL     O7   26  -0.101  -0.124  -0.036
    1UNL    C20   27  -0.251  -0.110  -0.023
    1UNL    C21   28  -0.313  -0.183  -0.144
    1UNL     O8   29  -0.454  -0.156  -0.161
    1UNL    C22   30  -0.303  -0.172   0.117
    1UNL     O9   31  -0.337  -0.060   0.202
    1UNL    C23   32  -0.189  -0.256   0.184
    1UNL    O10   33  -0.159  -0.380   0.115
    1UNL    C24   34  -0.058  -0.176   0.203
    1UNL    O11   35   0.051  -0.271   0.208
    1UNL     H1   36   0.030   0.631  -0.272
    1UNL     H2   37   0.205   0.610  -0.254
    1UNL     H3   38   0.097   0.608  -0.103
    1UNL     H4   39  -0.112   0.480  -0.075
    1UNL     H5   40  -0.159   0.354  -0.175
    1UNL     H6   41  -0.281   0.213   0.168
    1UNL     H7   42  -0.316   0.239  -0.004
    1UNL     H8   43  -0.301   0.373   0.080
    1UNL     H9   44   0.176   0.355   0.184
    1UNL    H10   45   0.313   0.157   0.104
    1UNL    H11   46   0.191   0.081   0.187
    1UNL    H12   47   0.423  -0.300   0.138
    1UNL    H13   48   0.465  -0.521   0.022
    1UNL    H14   49   0.340  -0.573  -0.175
    1UNL    H15   50   0.196  -0.420  -0.288
    1UNL    H16   51   0.163  -0.184  -0.177
    1UNL    H17   52   0.202   0.230  -0.170
    1UNL    H18   53   0.040   0.013  -0.153
    1UNL    H19   54  -0.080   0.143  -0.196
    1UNL    H20   55   0.061  -0.060   0.048
    1UNL    H21   56  -0.272  -0.006  -0.045
    1UNL    H22   57  -0.265  -0.163  -0.233
    1UNL    H23   58  -0.306  -0.288  -0.118
    1UNL    H24   59  -0.508  -0.186  -0.084
    1UNL    H25   60  -0.392  -0.235   0.103
    1UNL    H26   61  -0.256  -0.003   0.189
    1UNL    H27   62  -0.225  -0.273   0.286
    1UNL    H28   63  -0.076  -0.375   0.063
    1UNL    H29   64  -0.041  -0.126   0.301
    1UNL    H30   65   0.133  -0.213   0.192
   0.00000   0.00000   0.00000   0.00000   0.00000   0.00000   0.00000   0.00000   0.00000
Generated with MDTraj, t= 54.0
 65
    1UNL     C1    1   0.064   0.585  -0.227
    1UNL     O1    2   0.061   0.451  -0.246
    1UNL     C2    3   0.048   0.381  -0.121
    1UNL     C3    4  -0.101   0.378  -0.078
    1UNL     C4    5  -0.111   0.288   0.052
    1UNL     C5    6  -0.256   0.265   0.099
    1UNL     O2    7  -0.032   0.357   0.152
    1UNL     C6    8   0.105   0.350   0.103
    1UNL     O3    9   0.112   0.444  -0.003
    1UNL     C7   10   0.119   0.207   0.032
    1UNL     C8   11   0.231   0.111   0.090
    1UNL     O4   12   0.258  -0.008   0.005
    1UNL     C9   13   0.293  -0.114   0.077
    1UNL     O5   14   0.292  -0.114   0.199
    1UNL    C10   15   0.317  -0.238  -0.002
    1UNL    C11   16   0.414  -0.332   0.033
    1UNL    C12   17   0.435  -0.446  -0.046
    1UNL    C13   18   0.353  -0.481  -0.150
    1UNL    C14   19   0.249  -0.394  -0.182
    1UNL    C15   20   0.231  -0.277  -0.106
    1UNL    C16   21   0.106   0.231  -0.118
    1UNL    C17   22   0.001   0.121  -0.124
    1UNL    C18   23  -0.033   0.154   0.025
    1UNL     O6   24  -0.074   0.039   0.111
    1UNL    C19   25  -0.040  -0.091   0.077
    1UNL     O7   26  -0.107  -0.143  -0.042
    1UNL    C20   27  -0.252  -0.115  -0.027
    1UNL    C21   28  -0.324  -0.186  -0.141
    1UNL     O8   29  -0.448  -0.113  -0.167
    1UNL    C22   30  -0.310  -0.159   0.110
    1UNL     O9   31  -0.336  -0.039   0.189
    1UNL    C23   32  -0.218  -0.256   0.177
    1UNL    O10   33  -0.197  -0.376   0.100
    1UNL    C24   34  -0.082  -0.183   0.203
    1UNL    O11   35   0.030  -0.274   0.241
    1UNL     H1   36  -0.043   0.613  -0.227
    1UNL     H2   37   0.107   0.629  -0.312
    1UNL     H3   38   0.117   0.608  -0.132
    1UNL     H4   39  -0.138   0.472  -0.061
    1UNL     H5   40  -0.180   0.343  -0.159
    1UNL     H6   41  -0.244   0.232   0.197
    1UNL     H7   42  -0.318   0.197   0.048
    1UNL     H8   43  -0.315   0.352   0.092
    1UNL     H9   44   0.177   0.368   0.185
    1UNL    H10   45   0.324   0.168   0.110
    1UNL    H11   46   0.210   0.083   0.186
    1UNL    H12   47   0.481  -0.294   0.112
    1UNL    H13   48   0.524  -0.499  -0.018
    1UNL    H14   49   0.379  -0.565  -0.218
    1UNL    H15   50   0.173  -0.413  -0.251
    1UNL    H16   51   0.151  -0.214  -0.129
    1UNL    H17   52   0.190   0.229  -0.187
    1UNL    H18   53   0.049   0.019  -0.144
    1UNL    H19   54  -0.084   0.138  -0.183
    1UNL    H20   55   0.059  -0.088   0.042
    1UNL    H21   56  -0.262  -0.007  -0.040
    1UNL    H22   57  -0.270  -0.184  -0.227
    1UNL    H23   58  -0.342  -0.288  -0.111
    1UNL    H24   59  -0.502  -0.105  -0.085
    1UNL    H25   60  -0.410  -0.205   0.106
    1UNL    H26   61  -0.249   0.006   0.191
    1UNL    H27   62  -0.269  -0.274   0.276
    1UNL    H28   63  -0.127  -0.432   0.136
    1UNL    H29   64  -0.096  -0.123   0.292
    1UNL    H30   65   0.110  -0.224   0.240
   0.00000   0.00000   0.00000   0.00000   0.00000   0.00000   0.00000   0.00000   0.00000
Generated with MDTraj, t= 55.0
 65
    1UNL     C1    1   0.042   0.563  -0.244
    1UNL     O1    2   0.061   0.425  -0.248
    1UNL     C2    3   0.047   0.367  -0.118
    1UNL     C3    4  -0.098   0.366  -0.071
    1UNL     C4    5  -0.109   0.293   0.059
    1UNL     C5    6  -0.246   0.268   0.118
    1UNL     O2    7  -0.017   0.355   0.152
    1UNL     C6    8   0.112   0.345   0.096
    1UNL     O3    9   0.126   0.435  -0.014
    1UNL     C7   10   0.120   0.195   0.040
    1UNL     C8   11   0.222   0.098   0.096
    1UNL     O4   12   0.231  -0.013   0.009
    1UNL     C9   13   0.277  -0.118   0.080
    1UNL     O5   14   0.267  -0.128   0.203
    1UNL    C10   15   0.310  -0.244   0.001
    1UNL    C11   16   0.433  -0.304   0.016
    1UNL    C12   17   0.472  -0.421  -0.054
    1UNL    C13   18   0.375  -0.470  -0.145
    1UNL    C14   19   0.258  -0.398  -0.171
    1UNL    C15   20   0.220  -0.282  -0.100
    1UNL    C16   21   0.101   0.212  -0.115
    1UNL    C17   22  -0.017   0.112  -0.111
    1UNL    C18   23  -0.032   0.146   0.037
    1UNL     O6   24  -0.070   0.049   0.134
    1UNL    C19   25  -0.050  -0.078   0.089
    1UNL     O7   26  -0.108  -0.113  -0.034
    1UNL    C20   27  -0.259  -0.095  -0.024
    1UNL    C21   28  -0.313  -0.165  -0.151
    1UNL     O8   29  -0.440  -0.113  -0.186
    1UNL    C22   30  -0.310  -0.146   0.110
    1UNL     O9   31  -0.341  -0.032   0.186
    1UNL    C23   32  -0.213  -0.241   0.178
    1UNL    O10   33  -0.206  -0.369   0.110
    1UNL    C24   34  -0.077  -0.184   0.195
    1UNL    O11   35   0.031  -0.284   0.193
    1UNL     H1   36   0.009   0.590  -0.140
    1UNL     H2   37  -0.038   0.591  -0.303
    1UNL     H3   38   0.136   0.613  -0.267
    1UNL     H4   39  -0.135   0.475  -0.057
    1UNL     H5   40  -0.173   0.324  -0.141
    1UNL     H6   41  -0.243   0.226   0.210
    1UNL     H7   42  -0.319   0.228   0.052
    1UNL     H8   43  -0.296   0.361   0.123
    1UNL     H9   44   0.181   0.370   0.180
    1UNL    H10   45   0.323   0.143   0.091
    1UNL    H11   46   0.210   0.080   0.196
    1UNL    H12   47   0.501  -0.258   0.083
    1UNL    H13   48   0.576  -0.452  -0.066
    1UNL    H14   49   0.394  -0.563  -0.200
    1UNL    H15   50   0.192  -0.435  -0.257
    1UNL    H16   51   0.122  -0.241  -0.112
    1UNL    H17   52   0.187   0.184  -0.179
    1UNL    H18   53   0.029   0.015  -0.122
    1UNL    H19   54  -0.100   0.131  -0.184
    1UNL    H20   55   0.051  -0.088   0.057
    1UNL    H21   56  -0.277   0.013  -0.038
    1UNL    H22   57  -0.256  -0.129  -0.228
    1UNL    H23   58  -0.312  -0.272  -0.154
    1UNL    H24   59  -0.503  -0.132  -0.113
    1UNL    H25   60  -0.396  -0.213   0.106
    1UNL    H26   61  -0.253   0.015   0.186
    1UNL    H27   62  -0.246  -0.272   0.283
    1UNL    H28   63  -0.123  -0.424   0.126
    1UNL    H29   64  -0.071  -0.138   0.292
    1UNL    H30   65   0.124  -0.247   0.207
   0.00000   0.00000   0.00000   0.00000   0.00000   0.00000   0.00000   0.00000   0.00000
Generated with MDTraj, t= 56.0
 65
    1UNL     C1    1   0.087   0.554  -0.267
    1UNL     O1    2   0.065   0.415  -0.259
    1UNL     C2    3   0.043   0.369  -0.122
    1UNL     C3    4  -0.104   0.377  -0.069
    1UNL     C4    5  -0.104   0.302   0.074
    1UNL     C5    6  -0.249   0.299   0.124
    1UNL     O2    7  -0.017   0.373   0.159
    1UNL     C6    8   0.108   0.348   0.099
    1UNL     O3    9   0.132   0.432  -0.023
    1UNL     C7   10   0.114   0.200   0.041
    1UNL     C8   11   0.220   0.101   0.092
    1UNL     O4   12   0.245  -0.005   0.007
    1UNL     C9   13   0.278  -0.118   0.077
    1UNL     O5   14   0.255  -0.129   0.198
    1UNL    C10   15   0.312  -0.235  -0.013
    1UNL    C11   16   0.441  -0.285   0.004
    1UNL    C12   17   0.485  -0.397  -0.069
    1UNL    C13   18   0.394  -0.463  -0.156
    1UNL    C14   19   0.267  -0.415  -0.173
    1UNL    C15   20   0.224  -0.307  -0.096
    1UNL    C16   21   0.090   0.218  -0.103
    1UNL    C17   22  -0.023   0.115  -0.104
    1UNL    C18   23  -0.039   0.156   0.051
    1UNL     O6   24  -0.074   0.050   0.145
    1UNL    C19   25  -0.057  -0.083   0.098
    1UNL     O7   26  -0.115  -0.118  -0.024
    1UNL    C20   27  -0.258  -0.111  -0.021
    1UNL    C21   28  -0.313  -0.177  -0.150
    1UNL     O8   29  -0.439  -0.126  -0.176
    1UNL    C22   30  -0.319  -0.154   0.108
    1UNL     O9   31  -0.332  -0.032   0.190
    1UNL    C23   32  -0.233  -0.261   0.172
    1UNL    O10   33  -0.212  -0.368   0.080
    1UNL    C24   34  -0.089  -0.202   0.209
    1UNL    O11   35   0.014  -0.297   0.209
    1UNL     H1   36   0.200   0.566  -0.268
    1UNL     H2   37   0.066   0.597  -0.175
    1UNL     H3   38   0.046   0.597  -0.357
    1UNL     H4   39  -0.137   0.492  -0.055
    1UNL     H5   40  -0.178   0.337  -0.133
    1UNL     H6   41  -0.259   0.237   0.209
    1UNL     H7   42  -0.329   0.287   0.057
    1UNL     H8   43  -0.279   0.394   0.152
    1UNL     H9   44   0.190   0.374   0.171
    1UNL    H10   45   0.319   0.154   0.114
    1UNL    H11   46   0.192   0.068   0.186
    1UNL    H12   47   0.514  -0.221   0.056
    1UNL    H13   48   0.584  -0.432  -0.050
    1UNL    H14   49   0.426  -0.550  -0.203
    1UNL    H15   50   0.195  -0.471  -0.218
    1UNL    H16   51   0.115  -0.273  -0.106
    1UNL    H17   52   0.183   0.189  -0.155
    1UNL    H18   53   0.012   0.018  -0.109
    1UNL    H19   54  -0.121   0.136  -0.161
    1UNL    H20   55   0.051  -0.077   0.078
    1UNL    H21   56  -0.283  -0.002  -0.038
    1UNL    H22   57  -0.259  -0.166  -0.237
    1UNL    H23   58  -0.327  -0.284  -0.134
    1UNL    H24   59  -0.494  -0.118  -0.095
    1UNL    H25   60  -0.419  -0.191   0.094
    1UNL    H26   61  -0.248   0.015   0.182
    1UNL    H27   62  -0.285  -0.293   0.268
    1UNL    H28   63  -0.121  -0.401   0.082
    1UNL    H29   64  -0.090  -0.153   0.306
    1UNL    H30   65   0.097  -0.242   0.209
   0.00000   0.00000   0.00000   0.00000   0.00000   0.00000   0.00000   0.00000   0.00000
Generated with MDTraj, t= 57.0
 65
    1UNL     C1    1   0.125   0.554  -0.241
    1UNL     O1    2   0.080   0.424  -0.250
    1UNL     C2    3   0.052   0.370  -0.118
    1UNL     C3    4  -0.097   0.377  -0.069
    1UNL     C4    5  -0.111   0.292   0.057
    1UNL     C5    6  -0.246   0.277   0.122
    1UNL     O2    7  -0.022   0.350   0.157
    1UNL     C6    8   0.111   0.345   0.098
    1UNL     O3    9   0.127   0.433  -0.014
    1UNL     C7   10   0.118   0.197   0.042
    1UNL     C8   11   0.217   0.096   0.095
    1UNL     O4   12   0.258  -0.003   0.006
    1UNL     C9   13   0.285  -0.119   0.072
    1UNL     O5   14   0.264  -0.132   0.192
    1UNL    C10   15   0.313  -0.242  -0.009
    1UNL    C11   16   0.449  -0.276  -0.013
    1UNL    C12   17   0.490  -0.385  -0.087
    1UNL    C13   18   0.402  -0.453  -0.168
    1UNL    C14   19   0.269  -0.414  -0.176
    1UNL    C15   20   0.230  -0.310  -0.094
    1UNL    C16   21   0.103   0.215  -0.112
    1UNL    C17   22  -0.018   0.111  -0.110
    1UNL    C18   23  -0.039   0.151   0.034
    1UNL     O6   24  -0.083   0.058   0.132
    1UNL    C19   25  -0.064  -0.075   0.092
    1UNL     O7   26  -0.134  -0.114  -0.030
    1UNL    C20   27  -0.280  -0.110  -0.024
    1UNL    C21   28  -0.322  -0.183  -0.147
    1UNL     O8   29  -0.457  -0.150  -0.181
    1UNL    C22   30  -0.341  -0.162   0.112
    1UNL     O9   31  -0.362  -0.039   0.192
    1UNL    C23   32  -0.232  -0.255   0.188
    1UNL    O10   33  -0.199  -0.360   0.098
    1UNL    C24   34  -0.094  -0.174   0.213
    1UNL    O11   35   0.004  -0.259   0.242
    1UNL     H1   36   0.129   0.597  -0.348
    1UNL     H2   37   0.228   0.547  -0.214
    1UNL     H3   38   0.062   0.617  -0.183
    1UNL     H4   39  -0.116   0.478  -0.056
    1UNL     H5   40  -0.165   0.338  -0.146
    1UNL     H6   41  -0.218   0.246   0.222
    1UNL     H7   42  -0.320   0.219   0.078
    1UNL     H8   43  -0.294   0.367   0.123
    1UNL     H9   44   0.183   0.377   0.179
    1UNL    H10   45   0.314   0.152   0.119
    1UNL    H11   46   0.185   0.054   0.189
    1UNL    H12   47   0.516  -0.205   0.030
    1UNL    H13   48   0.598  -0.405  -0.099
    1UNL    H14   49   0.430  -0.557  -0.202
    1UNL    H15   50   0.197  -0.469  -0.241
    1UNL    H16   51   0.133  -0.282  -0.092
    1UNL    H17   52   0.184   0.180  -0.181
    1UNL    H18   53   0.023   0.015  -0.124
    1UNL    H19   54  -0.107   0.121  -0.180
    1UNL    H20   55   0.045  -0.083   0.072
    1UNL    H21   56  -0.306  -0.002  -0.042
    1UNL    H22   57  -0.257  -0.162  -0.227
    1UNL    H23   58  -0.308  -0.293  -0.132
    1UNL    H24   59  -0.512  -0.149  -0.100
    1UNL    H25   60  -0.439  -0.206   0.101
    1UNL    H26   61  -0.273   0.007   0.197
    1UNL    H27   62  -0.266  -0.296   0.287
    1UNL    H28   63  -0.105  -0.391   0.113
    1UNL    H29   64  -0.095  -0.128   0.315
    1UNL    H30   65   0.094  -0.220   0.227
   0.00000   0.00000   0.00000   0.00000   0.00000   0.00000   0.00000   0.00000   0.00000
Generated with MDTraj, t= 58.0
 65
    1UNL     C1    1   0.141   0.570  -0.224
    1UNL     O1    2   0.111   0.436  -0.240
    1UNL     C2    3   0.068   0.368  -0.117
    1UNL     C3    4  -0.086   0.387  -0.086
    1UNL     C4    5  -0.115   0.301   0.043
    1UNL     C5    6  -0.261   0.304   0.078
    1UNL     O2    7  -0.034   0.359   0.151
    1UNL     C6    8   0.105   0.339   0.108
    1UNL     O3    9   0.134   0.427   0.002
    1UNL     C7   10   0.108   0.189   0.046
    1UNL     C8   11   0.204   0.089   0.100
    1UNL     O4   12   0.226  -0.018   0.013
    1UNL     C9   13   0.274  -0.126   0.077
    1UNL     O5   14   0.265  -0.139   0.197
    1UNL    C10   15   0.315  -0.237  -0.013
    1UNL    C11   16   0.447  -0.270  -0.030
    1UNL    C12   17   0.491  -0.376  -0.104
    1UNL    C13   18   0.403  -0.447  -0.180
    1UNL    C14   19   0.267  -0.400  -0.175
    1UNL    C15   20   0.223  -0.300  -0.095
    1UNL    C16   21   0.106   0.221  -0.106
    1UNL    C17   22  -0.008   0.123  -0.119
    1UNL    C18   23  -0.047   0.155   0.023
    1UNL     O6   24  -0.095   0.054   0.113
    1UNL    C19   25  -0.065  -0.084   0.091
    1UNL     O7   26  -0.123  -0.132  -0.030
    1UNL    C20   27  -0.264  -0.122  -0.023
    1UNL    C21   28  -0.326  -0.202  -0.138
    1UNL     O8   29  -0.461  -0.174  -0.155
    1UNL    C22   30  -0.326  -0.159   0.117
    1UNL     O9   31  -0.356  -0.035   0.179
    1UNL    C23   32  -0.229  -0.246   0.206
    1UNL    O10   33  -0.212  -0.373   0.138
    1UNL    C24   34  -0.087  -0.178   0.212
    1UNL    O11   35   0.010  -0.266   0.231
    1UNL     H1   36   0.039   0.627  -0.226
    1UNL     H2   37   0.193   0.608  -0.311
    1UNL     H3   38   0.188   0.587  -0.128
    1UNL     H4   39  -0.097   0.485  -0.063
    1UNL     H5   40  -0.144   0.375  -0.178
    1UNL     H6   41  -0.274   0.261   0.173
    1UNL     H7   42  -0.308   0.248   0.005
    1UNL     H8   43  -0.303   0.400   0.062
    1UNL     H9   44   0.172   0.352   0.198
    1UNL    H10   45   0.308   0.140   0.106
    1UNL    H11   46   0.167   0.057   0.197
    1UNL    H12   47   0.524  -0.200   0.006
    1UNL    H13   48   0.594  -0.401  -0.111
    1UNL    H14   49   0.423  -0.526  -0.244
    1UNL    H15   50   0.196  -0.464  -0.220
    1UNL    H16   51   0.115  -0.264  -0.089
    1UNL    H17   52   0.187   0.193  -0.177
    1UNL    H18   53   0.026   0.016  -0.128
    1UNL    H19   54  -0.089   0.140  -0.189
    1UNL    H20   55   0.045  -0.074   0.074
    1UNL    H21   56  -0.284  -0.012  -0.045
    1UNL    H22   57  -0.271  -0.194  -0.230
    1UNL    H23   58  -0.312  -0.314  -0.116
    1UNL    H24   59  -0.500  -0.147  -0.070
    1UNL    H25   60  -0.418  -0.217   0.103
    1UNL    H26   61  -0.271   0.012   0.183
    1UNL    H27   62  -0.279  -0.278   0.298
    1UNL    H28   63  -0.123  -0.404   0.158
    1UNL    H29   64  -0.084  -0.118   0.308
    1UNL    H30   65   0.106  -0.227   0.222
   0.00000   0.00000   0.00000   0.00000   0.00000   0.00000   0.00000   0.00000   0.00000
Generated with MDTraj, t= 59.0
 65
    1UNL     C1    1   0.149   0.566  -0.208
    1UNL     O1    2   0.122   0.435  -0.230
    1UNL     C2    3   0.080   0.372  -0.104
    1UNL     C3    4  -0.071   0.378  -0.093
    1UNL     C4    5  -0.112   0.296   0.033
    1UNL     C5    6  -0.270   0.300   0.038
    1UNL     O2    7  -0.044   0.361   0.145
    1UNL     C6    8   0.094   0.339   0.121
    1UNL     O3    9   0.132   0.430   0.015
    1UNL     C7   10   0.109   0.194   0.056
    1UNL     C8   11   0.204   0.094   0.107
    1UNL     O4   12   0.226  -0.014   0.021
    1UNL     C9   13   0.277  -0.127   0.082
    1UNL     O5   14   0.272  -0.137   0.201
    1UNL    C10   15   0.313  -0.237  -0.005
    1UNL    C11   16   0.445  -0.273  -0.026
    1UNL    C12   17   0.477  -0.372  -0.116
    1UNL    C13   18   0.385  -0.434  -0.197
    1UNL    C14   19   0.256  -0.394  -0.187
    1UNL    C15   20   0.214  -0.298  -0.098
    1UNL    C16   21   0.123   0.224  -0.097
    1UNL    C17   22   0.004   0.118  -0.121
    1UNL    C18   23  -0.045   0.156   0.023
    1UNL     O6   24  -0.104   0.058   0.108
    1UNL    C19   25  -0.062  -0.073   0.075
    1UNL     O7   26  -0.135  -0.136  -0.033
    1UNL    C20   27  -0.278  -0.134  -0.019
    1UNL    C21   28  -0.341  -0.242  -0.116
    1UNL     O8   29  -0.462  -0.201  -0.167
    1UNL    C22   30  -0.319  -0.149   0.126
    1UNL     O9   31  -0.356  -0.023   0.182
    1UNL    C23   32  -0.223  -0.231   0.204
    1UNL    O10   33  -0.213  -0.373   0.165
    1UNL    C24   34  -0.076  -0.165   0.197
    1UNL    O11   35   0.026  -0.265   0.202
    1UNL     H1   36   0.093   0.597  -0.112
    1UNL     H2   37   0.104   0.631  -0.286
    1UNL     H3   38   0.255   0.584  -0.193
    1UNL     H4   39  -0.101   0.490  -0.086
    1UNL     H5   40  -0.109   0.348  -0.183
    1UNL     H6   41  -0.302   0.236   0.109
    1UNL     H7   42  -0.311   0.273  -0.056
    1UNL     H8   43  -0.306   0.401   0.050
    1UNL     H9   44   0.167   0.349   0.203
    1UNL    H10   45   0.312   0.137   0.117
    1UNL    H11   46   0.173   0.057   0.206
    1UNL    H12   47   0.524  -0.220   0.021
    1UNL    H13   48   0.583  -0.397  -0.131
    1UNL    H14   49   0.418  -0.510  -0.270
    1UNL    H15   50   0.176  -0.452  -0.238
    1UNL    H16   51   0.115  -0.269  -0.074
    1UNL    H17   52   0.230   0.207  -0.128
    1UNL    H18   53   0.054   0.015  -0.125
    1UNL    H19   54  -0.065   0.133  -0.197
    1UNL    H20   55   0.051  -0.060   0.051
    1UNL    H21   56  -0.319  -0.031  -0.042
    1UNL    H22   57  -0.275  -0.253  -0.204
    1UNL    H23   58  -0.346  -0.352  -0.077
    1UNL    H24   59  -0.532  -0.190  -0.097
    1UNL    H25   60  -0.421  -0.193   0.127
    1UNL    H26   61  -0.279   0.039   0.178
    1UNL    H27   62  -0.259  -0.226   0.305
    1UNL    H28   63  -0.118  -0.387   0.193
    1UNL    H29   64  -0.054  -0.102   0.287
    1UNL    H30   65   0.107  -0.218   0.210
   0.00000   0.00000   0.00000   0.00000   0.00000   0.00000   0.00000   0.00000   0.00000
Generated with MDTraj, t= 60.0
 65
    1UNL     C1    1   0.182   0.574  -0.195
    1UNL     O1    2   0.131   0.449  -0.227
    1UNL     C2    3   0.084   0.382  -0.113
    1UNL     C3    4  -0.072   0.379  -0.100
    1UNL     C4    5  -0.110   0.296   0.024
    1UNL     C5    6  -0.259   0.270   0.047
    1UNL     O2    7  -0.043   0.360   0.137
    1UNL     C6    8   0.094   0.341   0.116
    1UNL     O3    9   0.130   0.440   0.013
    1UNL     C7   10   0.116   0.201   0.051
    1UNL     C8   11   0.197   0.095   0.121
    1UNL     O4   12   0.243   0.004   0.024
    1UNL     C9   13   0.285  -0.110   0.083
    1UNL     O5   14   0.283  -0.131   0.202
    1UNL    C10   15   0.312  -0.227  -0.014
    1UNL    C11   16   0.444  -0.279  -0.028
    1UNL    C12   17   0.465  -0.375  -0.117
    1UNL    C13   18   0.361  -0.428  -0.194
    1UNL    C14   19   0.235  -0.374  -0.193
    1UNL    C15   20   0.213  -0.271  -0.100
    1UNL    C16   21   0.132   0.229  -0.102
    1UNL    C17   22   0.014   0.125  -0.128
    1UNL    C18   23  -0.032   0.154   0.017
    1UNL     O6   24  -0.095   0.052   0.097
    1UNL    C19   25  -0.073  -0.087   0.075
    1UNL     O7   26  -0.134  -0.138  -0.034
    1UNL    C20   27  -0.284  -0.133  -0.024
    1UNL    C21   28  -0.336  -0.256  -0.102
    1UNL     O8   29  -0.476  -0.245  -0.145
    1UNL    C22   30  -0.330  -0.152   0.125
    1UNL     O9   31  -0.345  -0.027   0.181
    1UNL    C23   32  -0.232  -0.237   0.204
    1UNL    O10   33  -0.227  -0.369   0.147
    1UNL    C24   34  -0.095  -0.173   0.201
    1UNL    O11   35   0.015  -0.265   0.220
    1UNL     H1   36   0.091   0.629  -0.157
    1UNL     H2   37   0.223   0.636  -0.279
    1UNL     H3   38   0.255   0.564  -0.115
    1UNL     H4   39  -0.112   0.488  -0.081
    1UNL     H5   40  -0.120   0.345  -0.186
    1UNL     H6   41  -0.265   0.228   0.144
    1UNL     H7   42  -0.304   0.203  -0.022
    1UNL     H8   43  -0.312   0.361   0.038
    1UNL     H9   44   0.147   0.342   0.213
    1UNL    H10   45   0.291   0.142   0.172
    1UNL    H11   46   0.149   0.036   0.201
    1UNL    H12   47   0.532  -0.237   0.024
    1UNL    H13   48   0.559  -0.415  -0.143
    1UNL    H14   49   0.389  -0.517  -0.247
    1UNL    H15   50   0.161  -0.426  -0.250
    1UNL    H16   51   0.113  -0.239  -0.091
    1UNL    H17   52   0.225   0.185  -0.148
    1UNL    H18   53   0.051   0.019  -0.136
    1UNL    H19   54  -0.049   0.144  -0.212
    1UNL    H20   55   0.041  -0.099   0.069
    1UNL    H21   56  -0.320  -0.038  -0.070
    1UNL    H22   57  -0.271  -0.268  -0.193
    1UNL    H23   58  -0.312  -0.358  -0.048
    1UNL    H24   59  -0.535  -0.274  -0.070
    1UNL    H25   60  -0.431  -0.199   0.127
    1UNL    H26   61  -0.260   0.023   0.180
    1UNL    H27   62  -0.274  -0.249   0.301
    1UNL    H28   63  -0.149  -0.403   0.193
    1UNL    H29   64  -0.078  -0.106   0.287
    1UNL    H30   65   0.109  -0.224   0.213
   0.00000   0.00000   0.00000   0.00000   0.00000   0.00000   0.00000   0.00000   0.00000
Generated with MDTraj, t= 61.0
 65
    1UNL     C1    1   0.178   0.570  -0.213
    1UNL     O1    2   0.152   0.433  -0.222
    1UNL     C2    3   0.089   0.378  -0.102
    1UNL     C3    4  -0.073   0.393  -0.098
    1UNL     C4    5  -0.113   0.302   0.025
    1UNL     C5    6  -0.264   0.288   0.040
    1UNL     O2    7  -0.050   0.362   0.142
    1UNL     C6    8   0.088   0.345   0.120
    1UNL     O3    9   0.132   0.435   0.021
    1UNL     C7   10   0.107   0.201   0.057
    1UNL     C8   11   0.212   0.105   0.114
    1UNL     O4   12   0.257   0.006   0.017
    1UNL     C9   13   0.266  -0.115   0.079
    1UNL     O5   14   0.253  -0.129   0.201
    1UNL    C10   15   0.288  -0.228  -0.022
    1UNL    C11   16   0.415  -0.298  -0.018
    1UNL    C12   17   0.452  -0.388  -0.110
    1UNL    C13   18   0.362  -0.423  -0.201
    1UNL    C14   19   0.237  -0.375  -0.202
    1UNL    C15   20   0.197  -0.275  -0.110
    1UNL    C16   21   0.124   0.223  -0.095
    1UNL    C17   22   0.011   0.126  -0.119
    1UNL    C18   23  -0.045   0.162   0.021
    1UNL     O6   24  -0.101   0.063   0.117
    1UNL    C19   25  -0.060  -0.072   0.079
    1UNL     O7   26  -0.118  -0.129  -0.039
    1UNL    C20   27  -0.271  -0.136  -0.030
    1UNL    C21   28  -0.318  -0.248  -0.123
    1UNL     O8   29  -0.462  -0.278  -0.105
    1UNL    C22   30  -0.320  -0.153   0.115
    1UNL     O9   31  -0.350  -0.023   0.177
    1UNL    C23   32  -0.221  -0.241   0.191
    1UNL    O10   33  -0.205  -0.373   0.133
    1UNL    C24   34  -0.084  -0.168   0.208
    1UNL    O11   35   0.017  -0.267   0.224
    1UNL     H1   36   0.086   0.617  -0.176
    1UNL     H2   37   0.197   0.620  -0.312
    1UNL     H3   38   0.262   0.584  -0.146
    1UNL     H4   39  -0.103   0.495  -0.068
    1UNL     H5   40  -0.134   0.363  -0.194
    1UNL     H6   41  -0.296   0.226   0.127
    1UNL     H7   42  -0.303   0.238  -0.044
    1UNL     H8   43  -0.313   0.379   0.045
    1UNL     H9   44   0.129   0.359   0.219
    1UNL    H10   45   0.312   0.148   0.156
    1UNL    H11   46   0.166   0.062   0.203
    1UNL    H12   47   0.486  -0.248   0.045
    1UNL    H13   48   0.556  -0.424  -0.104
    1UNL    H14   49   0.384  -0.503  -0.270
    1UNL    H15   50   0.160  -0.422  -0.261
    1UNL    H16   51   0.094  -0.231  -0.119
    1UNL    H17   52   0.229   0.191  -0.120
    1UNL    H18   53   0.035   0.024  -0.131
    1UNL    H19   54  -0.061   0.156  -0.202
    1UNL    H20   55   0.049  -0.052   0.057
    1UNL    H21   56  -0.307  -0.041  -0.071
    1UNL    H22   57  -0.298  -0.227  -0.232
    1UNL    H23   58  -0.250  -0.342  -0.104
    1UNL    H24   59  -0.469  -0.349  -0.038
    1UNL    H25   60  -0.418  -0.206   0.107
    1UNL    H26   61  -0.270   0.029   0.168
    1UNL    H27   62  -0.276  -0.264   0.283
    1UNL    H28   63  -0.125  -0.411   0.181
    1UNL    H29   64  -0.092  -0.100   0.293
    1UNL    H30   65   0.102  -0.220   0.222
   0.00000   0.00000   0.00000   0.00000   0.00000   0.00000   0.00000   0.00000   0.00000
Generated with MDTraj, t= 62.0
 65
    1UNL     C1    1   0.146   0.581  -0.216
    1UNL     O1    2   0.130   0.441  -0.234
    1UNL     C2    3   0.078   0.379  -0.116
    1UNL     C3    4  -0.074   0.385  -0.094
    1UNL     C4    5  -0.111   0.308   0.034
    1UNL     C5    6  -0.255   0.307   0.064
    1UNL     O2    7  -0.035   0.367   0.147
    1UNL     C6    8   0.104   0.353   0.115
    1UNL     O3    9   0.143   0.434   0.002
    1UNL     C7   10   0.116   0.210   0.053
    1UNL     C8   11   0.200   0.103   0.120
    1UNL     O4   12   0.214  -0.012   0.031
    1UNL     C9   13   0.268  -0.127   0.086
    1UNL     O5   14   0.284  -0.145   0.206
    1UNL    C10   15   0.300  -0.232  -0.014
    1UNL    C11   16   0.416  -0.297  -0.013
    1UNL    C12   17   0.437  -0.405  -0.101
    1UNL    C13   18   0.337  -0.438  -0.187
    1UNL    C14   19   0.224  -0.363  -0.201
    1UNL    C15   20   0.207  -0.254  -0.119
    1UNL    C16   21   0.126   0.224  -0.102
    1UNL    C17   22   0.009   0.115  -0.111
    1UNL    C18   23  -0.035   0.165   0.028
    1UNL     O6   24  -0.089   0.068   0.127
    1UNL    C19   25  -0.065  -0.064   0.094
    1UNL     O7   26  -0.120  -0.106  -0.030
    1UNL    C20   27  -0.268  -0.131  -0.037
    1UNL    C21   28  -0.297  -0.251  -0.131
    1UNL     O8   29  -0.430  -0.306  -0.130
    1UNL    C22   30  -0.330  -0.159   0.102
    1UNL     O9   31  -0.353  -0.031   0.165
    1UNL    C23   32  -0.227  -0.241   0.191
    1UNL    O10   33  -0.207  -0.367   0.125
    1UNL    C24   34  -0.085  -0.166   0.215
    1UNL    O11   35   0.016  -0.268   0.215
    1UNL     H1   36   0.050   0.625  -0.205
    1UNL     H2   37   0.200   0.635  -0.297
    1UNL     H3   38   0.206   0.586  -0.128
    1UNL     H4   39  -0.109   0.486  -0.077
    1UNL     H5   40  -0.124   0.331  -0.187
    1UNL     H6   41  -0.280   0.247   0.152
    1UNL     H7   42  -0.314   0.270  -0.017
    1UNL     H8   43  -0.283   0.406   0.088
    1UNL     H9   44   0.184   0.369   0.187
    1UNL    H10   45   0.304   0.151   0.136
    1UNL    H11   46   0.167   0.067   0.215
    1UNL    H12   47   0.497  -0.272   0.048
    1UNL    H13   48   0.533  -0.444  -0.125
    1UNL    H14   49   0.345  -0.531  -0.243
    1UNL    H15   50   0.159  -0.384  -0.290
    1UNL    H16   51   0.113  -0.207  -0.135
    1UNL    H17   52   0.227   0.189  -0.142
    1UNL    H18   53   0.050   0.020  -0.116
    1UNL    H19   54  -0.069   0.136  -0.194
    1UNL    H20   55   0.038  -0.068   0.059
    1UNL    H21   56  -0.314  -0.041  -0.078
    1UNL    H22   57  -0.276  -0.224  -0.238
    1UNL    H23   58  -0.232  -0.343  -0.101
    1UNL    H24   59  -0.466  -0.338  -0.046
    1UNL    H25   60  -0.434  -0.200   0.093
    1UNL    H26   61  -0.266   0.016   0.158
    1UNL    H27   62  -0.262  -0.269   0.293
    1UNL    H28   63  -0.132  -0.404   0.175
    1UNL    H29   64  -0.083  -0.127   0.316
    1UNL    H30   65   0.106  -0.224   0.220
   0.00000   0.00000   0.00000   0.00000   0.00000   0.00000   0.00000   0.00000   0.00000
Generated with MDTraj, t= 63.0
 65
    1UNL     C1    1   0.110   0.571  -0.245
    1UNL     O1    2   0.099   0.433  -0.235
    1UNL     C2    3   0.073   0.382  -0.104
    1UNL     C3    4  -0.074   0.397  -0.070
    1UNL     C4    5  -0.102   0.311   0.061
    1UNL     C5    6  -0.246   0.317   0.104
    1UNL     O2    7  -0.016   0.355   0.166
    1UNL     C6    8   0.122   0.348   0.120
    1UNL     O3    9   0.145   0.438   0.005
    1UNL     C7   10   0.115   0.203   0.055
    1UNL     C8   11   0.219   0.099   0.102
    1UNL     O4   12   0.244  -0.007   0.009
    1UNL     C9   13   0.277  -0.118   0.082
    1UNL     O5   14   0.286  -0.119   0.204
    1UNL    C10   15   0.293  -0.241  -0.005
    1UNL    C11   16   0.400  -0.321   0.013
    1UNL    C12   17   0.420  -0.422  -0.086
    1UNL    C13   18   0.330  -0.445  -0.184
    1UNL    C14   19   0.222  -0.363  -0.201
    1UNL    C15   20   0.198  -0.268  -0.109
    1UNL    C16   21   0.114   0.227  -0.099
    1UNL    C17   22  -0.005   0.133  -0.117
    1UNL    C18   23  -0.040   0.169   0.032
    1UNL     O6   24  -0.099   0.069   0.114
    1UNL    C19   25  -0.063  -0.061   0.085
    1UNL     O7   26  -0.111  -0.111  -0.041
    1UNL    C20   27  -0.256  -0.147  -0.045
    1UNL    C21   28  -0.284  -0.276  -0.132
    1UNL     O8   29  -0.413  -0.290  -0.171
    1UNL    C22   30  -0.322  -0.159   0.090
    1UNL     O9   31  -0.361  -0.030   0.150
    1UNL    C23   32  -0.224  -0.232   0.189
    1UNL    O10   33  -0.210  -0.363   0.141
    1UNL    C24   34  -0.086  -0.163   0.205
    1UNL    O11   35   0.016  -0.253   0.216
    1UNL     H1   36   0.017   0.619  -0.233
    1UNL     H2   37   0.149   0.596  -0.346
    1UNL     H3   38   0.185   0.593  -0.172
    1UNL     H4   39  -0.089   0.498  -0.025
    1UNL     H5   40  -0.128   0.378  -0.153
    1UNL     H6   41  -0.262   0.284   0.203
    1UNL     H7   42  -0.304   0.245   0.044
    1UNL     H8   43  -0.283   0.422   0.102
    1UNL     H9   44   0.192   0.348   0.202
    1UNL    H10   45   0.323   0.147   0.107
    1UNL    H11   46   0.196   0.075   0.202
    1UNL    H12   47   0.472  -0.304   0.100
    1UNL    H13   48   0.510  -0.486  -0.072
    1UNL    H14   49   0.364  -0.508  -0.264
    1UNL    H15   50   0.150  -0.384  -0.269
    1UNL    H16   51   0.107  -0.208  -0.119
    1UNL    H17   52   0.208   0.208  -0.159
    1UNL    H18   53   0.011   0.024  -0.130
    1UNL    H19   54  -0.084   0.170  -0.183
    1UNL    H20   55   0.040  -0.058   0.065
    1UNL    H21   56  -0.296  -0.063  -0.100
    1UNL    H22   57  -0.224  -0.271  -0.227
    1UNL    H23   58  -0.253  -0.370  -0.075
    1UNL    H24   59  -0.471  -0.315  -0.095
    1UNL    H25   60  -0.418  -0.215   0.083
    1UNL    H26   61  -0.279   0.026   0.146
    1UNL    H27   62  -0.282  -0.249   0.286
    1UNL    H28   63  -0.139  -0.411   0.192
    1UNL    H29   64  -0.094  -0.108   0.300
    1UNL    H30   65   0.109  -0.212   0.223
   0.00000   0.00000   0.00000   0.00000   0.00000   0.00000   0.00000   0.00000   0.00000
Generated with MDTraj, t= 64.0
 65
    1UNL     C1    1   0.091   0.595  -0.216
    1UNL     O1    2   0.083   0.459  -0.242
    1UNL     C2    3   0.058   0.389  -0.114
    1UNL     C3    4  -0.087   0.400  -0.067
    1UNL     C4    5  -0.103   0.313   0.064
    1UNL     C5    6  -0.235   0.315   0.126
    1UNL     O2    7   0.001   0.377   0.158
    1UNL     C6    8   0.128   0.351   0.106
    1UNL     O3    9   0.142   0.438  -0.010
    1UNL     C7   10   0.118   0.214   0.044
    1UNL     C8   11   0.215   0.101   0.094
    1UNL     O4   12   0.228   0.000  -0.002
    1UNL     C9   13   0.260  -0.116   0.065
    1UNL     O5   14   0.264  -0.125   0.188
    1UNL    C10   15   0.283  -0.240  -0.020
    1UNL    C11   16   0.389  -0.330   0.012
    1UNL    C12   17   0.408  -0.451  -0.056
    1UNL    C13   18   0.325  -0.477  -0.161
    1UNL    C14   19   0.222  -0.390  -0.191
    1UNL    C15   20   0.201  -0.271  -0.123
    1UNL    C16   21   0.102   0.238  -0.117
    1UNL    C17   22  -0.014   0.138  -0.112
    1UNL    C18   23  -0.037   0.171   0.032
    1UNL     O6   24  -0.095   0.071   0.123
    1UNL    C19   25  -0.053  -0.062   0.098
    1UNL     O7   26  -0.086  -0.126  -0.028
    1UNL    C20   27  -0.228  -0.153  -0.043
    1UNL    C21   28  -0.260  -0.267  -0.148
    1UNL     O8   29  -0.391  -0.252  -0.200
    1UNL    C22   30  -0.299  -0.169   0.084
    1UNL     O9   31  -0.353  -0.047   0.136
    1UNL    C23   32  -0.228  -0.241   0.197
    1UNL    O10   33  -0.211  -0.378   0.168
    1UNL    C24   34  -0.089  -0.167   0.215
    1UNL    O11   35   0.017  -0.263   0.235
    1UNL     H1   36   0.001   0.639  -0.191
    1UNL     H2   37   0.135   0.645  -0.307
    1UNL     H3   38   0.168   0.596  -0.138
    1UNL     H4   39  -0.102   0.504  -0.041
    1UNL     H5   40  -0.148   0.363  -0.141
    1UNL     H6   41  -0.235   0.264   0.218
    1UNL     H7   42  -0.297   0.251   0.059
    1UNL     H8   43  -0.263   0.423   0.140
    1UNL     H9   44   0.192   0.369   0.193
    1UNL    H10   45   0.314   0.146   0.124
    1UNL    H11   46   0.181   0.054   0.180
    1UNL    H12   47   0.433  -0.316   0.105
    1UNL    H13   48   0.484  -0.516  -0.024
    1UNL    H14   49   0.333  -0.566  -0.225
    1UNL    H15   50   0.158  -0.424  -0.281
    1UNL    H16   51   0.107  -0.223  -0.142
    1UNL    H17   52   0.192   0.222  -0.183
    1UNL    H18   53   0.013   0.027  -0.133
    1UNL    H19   54  -0.097   0.160  -0.173
    1UNL    H20   55   0.052  -0.057   0.094
    1UNL    H21   56  -0.264  -0.066  -0.098
    1UNL    H22   57  -0.192  -0.259  -0.237
    1UNL    H23   58  -0.245  -0.365  -0.099
    1UNL    H24   59  -0.441  -0.183  -0.151
    1UNL    H25   60  -0.390  -0.230   0.064
    1UNL    H26   61  -0.273   0.009   0.137
    1UNL    H27   62  -0.291  -0.233   0.291
    1UNL    H28   63  -0.118  -0.403   0.182
    1UNL    H29   64  -0.090  -0.101   0.306
    1UNL    H30   65   0.099  -0.217   0.220
   0.00000   0.00000   0.00000   0.00000   0.00000   0.00000   0.00000   0.00000   0.00000
Generated with MDTraj, t= 65.0
 65
    1UNL     C1    1   0.087   0.591  -0.215
    1UNL     O1    2   0.074   0.451  -0.234
    1UNL     C2    3   0.049   0.384  -0.106
    1UNL     C3    4  -0.097   0.397  -0.055
    1UNL     C4    5  -0.109   0.304   0.071
    1UNL     C5    6  -0.255   0.283   0.119
    1UNL     O2    7  -0.014   0.359   0.165
    1UNL     C6    8   0.115   0.341   0.110
    1UNL     O3    9   0.130   0.439   0.007
    1UNL     C7   10   0.103   0.203   0.032
    1UNL     C8   11   0.229   0.110   0.053
    1UNL     O4   12   0.227  -0.007  -0.026
    1UNL     C9   13   0.256  -0.121   0.051
    1UNL     O5   14   0.272  -0.115   0.172
    1UNL    C10   15   0.284  -0.252  -0.018
    1UNL    C11   16   0.376  -0.347   0.024
    1UNL    C12   17   0.388  -0.468  -0.036
    1UNL    C13   18   0.307  -0.498  -0.147
    1UNL    C14   19   0.212  -0.407  -0.190
    1UNL    C15   20   0.203  -0.286  -0.122
    1UNL    C16   21   0.082   0.233  -0.118
    1UNL    C17   22  -0.036   0.127  -0.119
    1UNL    C18   23  -0.045   0.161   0.039
    1UNL     O6   24  -0.089   0.069   0.130
    1UNL    C19   25  -0.042  -0.057   0.114
    1UNL     O7   26  -0.068  -0.119  -0.010
    1UNL    C20   27  -0.213  -0.126  -0.042
    1UNL    C21   28  -0.231  -0.235  -0.147
    1UNL     O8   29  -0.356  -0.219  -0.230
    1UNL    C22   30  -0.297  -0.153   0.088
    1UNL     O9   31  -0.340  -0.031   0.136
    1UNL    C23   32  -0.215  -0.228   0.192
    1UNL    O10   33  -0.190  -0.355   0.139
    1UNL    C24   34  -0.084  -0.153   0.222
    1UNL    O11   35   0.022  -0.244   0.259
    1UNL     H1   36   0.005   0.634  -0.167
    1UNL     H2   37   0.119   0.647  -0.309
    1UNL     H3   38   0.175   0.590  -0.145
    1UNL     H4   39  -0.122   0.487  -0.014
    1UNL     H5   40  -0.163   0.364  -0.145
    1UNL     H6   41  -0.250   0.201   0.195
    1UNL     H7   42  -0.322   0.240   0.042
    1UNL     H8   43  -0.280   0.373   0.177
    1UNL     H9   44   0.201   0.334   0.178
    1UNL    H10   45   0.327   0.155   0.022
    1UNL    H11   46   0.239   0.090   0.154
    1UNL    H12   47   0.437  -0.320   0.113
    1UNL    H13   48   0.449  -0.550   0.006
    1UNL    H14   49   0.316  -0.588  -0.202
    1UNL    H15   50   0.159  -0.419  -0.278
    1UNL    H16   51   0.133  -0.213  -0.161
    1UNL    H17   52   0.169   0.203  -0.184
    1UNL    H18   53  -0.000   0.024  -0.153
    1UNL    H19   54  -0.120   0.161  -0.176
    1UNL    H20   55   0.069  -0.054   0.129
    1UNL    H21   56  -0.241  -0.032  -0.090
    1UNL    H22   57  -0.144  -0.237  -0.216
    1UNL    H23   58  -0.240  -0.330  -0.098
    1UNL    H24   59  -0.441  -0.247  -0.188
    1UNL    H25   60  -0.392  -0.208   0.077
    1UNL    H26   61  -0.253   0.019   0.143
    1UNL    H27   62  -0.261  -0.238   0.295
    1UNL    H28   63  -0.091  -0.365   0.124
    1UNL    H29   64  -0.087  -0.085   0.312
    1UNL    H30   65   0.116  -0.201   0.248
   0.00000   0.00000   0.00000   0.00000   0.00000   0.00000   0.00000   0.00000   0.00000
Generated with MDTraj, t= 66.0
 65
    1UNL     C1    1   0.081   0.593  -0.222
    1UNL     O1    2   0.055   0.460  -0.247
    1UNL     C2    3   0.043   0.388  -0.118
    1UNL     C3    4  -0.107   0.403  -0.060
    1UNL     C4    5  -0.112   0.310   0.069
    1UNL     C5    6  -0.252   0.306   0.136
    1UNL     O2    7  -0.009   0.376   0.155
    1UNL     C6    8   0.117   0.355   0.098
    1UNL     O3    9   0.128   0.444  -0.011
    1UNL     C7   10   0.119   0.212   0.035
    1UNL     C8   11   0.228   0.110   0.074
    1UNL     O4   12   0.221  -0.006  -0.005
    1UNL     C9   13   0.258  -0.124   0.059
    1UNL     O5   14   0.282  -0.127   0.175
    1UNL    C10   15   0.277  -0.249  -0.017
    1UNL    C11   16   0.358  -0.351   0.032
    1UNL    C12   17   0.355  -0.474  -0.024
    1UNL    C13   18   0.280  -0.504  -0.141
    1UNL    C14   19   0.196  -0.408  -0.191
    1UNL    C15   20   0.194  -0.285  -0.128
    1UNL    C16   21   0.084   0.232  -0.123
    1UNL    C17   22  -0.032   0.133  -0.108
    1UNL    C18   23  -0.041   0.169   0.043
    1UNL     O6   24  -0.089   0.066   0.136
    1UNL    C19   25  -0.033  -0.064   0.119
    1UNL     O7   26  -0.057  -0.130  -0.015
    1UNL    C20   27  -0.203  -0.134  -0.046
    1UNL    C21   28  -0.226  -0.226  -0.169
    1UNL     O8   29  -0.348  -0.190  -0.233
    1UNL    C22   30  -0.287  -0.167   0.082
    1UNL     O9   31  -0.348  -0.055   0.144
    1UNL    C23   32  -0.203  -0.255   0.180
    1UNL    O10   33  -0.146  -0.371   0.113
    1UNL    C24   34  -0.081  -0.165   0.232
    1UNL    O11   35   0.029  -0.246   0.280
    1UNL     H1   36   0.009   0.631  -0.154
    1UNL     H2   37   0.098   0.655  -0.316
    1UNL     H3   38   0.178   0.591  -0.162
    1UNL     H4   39  -0.125   0.502  -0.029
    1UNL     H5   40  -0.194   0.362  -0.127
    1UNL     H6   41  -0.263   0.243   0.232
    1UNL     H7   42  -0.314   0.249   0.063
    1UNL     H8   43  -0.273   0.410   0.159
    1UNL     H9   44   0.202   0.367   0.169
    1UNL    H10   45   0.324   0.161   0.051
    1UNL    H11   46   0.226   0.080   0.172
    1UNL    H12   47   0.404  -0.332   0.130
    1UNL    H13   48   0.401  -0.559   0.025
    1UNL    H14   49   0.296  -0.603  -0.182
    1UNL    H15   50   0.143  -0.414  -0.286
    1UNL    H16   51   0.139  -0.198  -0.161
    1UNL    H17   52   0.182   0.202  -0.172
    1UNL    H18   53  -0.001   0.032  -0.140
    1UNL    H19   54  -0.118   0.172  -0.167
    1UNL    H20   55   0.079  -0.049   0.122
    1UNL    H21   56  -0.227  -0.030  -0.073
    1UNL    H22   57  -0.150  -0.224  -0.249
    1UNL    H23   58  -0.235  -0.323  -0.132
    1UNL    H24   59  -0.420  -0.202  -0.168
    1UNL    H25   60  -0.373  -0.229   0.054
    1UNL    H26   61  -0.273   0.002   0.170
    1UNL    H27   62  -0.280  -0.289   0.250
    1UNL    H28   63  -0.074  -0.410   0.165
    1UNL    H29   64  -0.124  -0.102   0.314
    1UNL    H30   65   0.111  -0.200   0.262
   0.00000   0.00000   0.00000   0.00000   0.00000   0.00000   0.00000   0.00000   0.00000
Generated with MDTraj, t= 67.0
 65
    1UNL     C1    1   0.070   0.574  -0.250
    1UNL     O1    2   0.058   0.435  -0.249
    1UNL     C2    3   0.052   0.380  -0.118
    1UNL     C3    4  -0.095   0.395  -0.052
    1UNL     C4    5  -0.101   0.309   0.074
    1UNL     C5    6  -0.235   0.307   0.139
    1UNL     O2    7  -0.002   0.364   0.166
    1UNL     C6    8   0.126   0.353   0.102
    1UNL     O3    9   0.139   0.439  -0.014
    1UNL     C7   10   0.113   0.204   0.042
    1UNL     C8   11   0.237   0.120   0.073
    1UNL     O4   12   0.236   0.002  -0.002
    1UNL     C9   13   0.262  -0.109   0.073
    1UNL     O5   14   0.283  -0.112   0.193
    1UNL    C10   15   0.248  -0.237  -0.003
    1UNL    C11   16   0.326  -0.345   0.044
    1UNL    C12   17   0.325  -0.466  -0.017
    1UNL    C13   18   0.250  -0.483  -0.138
    1UNL    C14   19   0.178  -0.369  -0.183
    1UNL    C15   20   0.173  -0.249  -0.116
    1UNL    C16   21   0.089   0.232  -0.113
    1UNL    C17   22  -0.023   0.130  -0.108
    1UNL    C18   23  -0.044   0.161   0.040
    1UNL     O6   24  -0.094   0.059   0.126
    1UNL    C19   25  -0.035  -0.066   0.108
    1UNL     O7   26  -0.064  -0.120  -0.020
    1UNL    C20   27  -0.209  -0.128  -0.048
    1UNL    C21   28  -0.231  -0.210  -0.173
    1UNL     O8   29  -0.353  -0.194  -0.238
    1UNL    C22   30  -0.282  -0.196   0.074
    1UNL     O9   31  -0.361  -0.101   0.141
    1UNL    C23   32  -0.180  -0.262   0.171
    1UNL    O10   33  -0.120  -0.376   0.106
    1UNL    C24   34  -0.068  -0.162   0.222
    1UNL    O11   35   0.044  -0.236   0.268
    1UNL     H1   36  -0.021   0.616  -0.213
    1UNL     H2   37   0.104   0.611  -0.351
    1UNL     H3   38   0.142   0.606  -0.168
    1UNL     H4   39  -0.098   0.507  -0.011
    1UNL     H5   40  -0.186   0.372  -0.111
    1UNL     H6   41  -0.225   0.271   0.244
    1UNL     H7   42  -0.298   0.227   0.091
    1UNL     H8   43  -0.274   0.410   0.147
    1UNL     H9   44   0.210   0.354   0.177
    1UNL    H10   45   0.337   0.160   0.043
    1UNL    H11   46   0.232   0.098   0.174
    1UNL    H12   47   0.353  -0.345   0.145
    1UNL    H13   48   0.371  -0.552   0.031
    1UNL    H14   49   0.257  -0.580  -0.190
    1UNL    H15   50   0.136  -0.386  -0.286
    1UNL    H16   51   0.121  -0.158  -0.148
    1UNL    H17   52   0.173   0.184  -0.175
    1UNL    H18   53  -0.004   0.028  -0.130
    1UNL    H19   54  -0.116   0.151  -0.172
    1UNL    H20   55   0.071  -0.054   0.094
    1UNL    H21   56  -0.244  -0.023  -0.056
    1UNL    H22   57  -0.155  -0.182  -0.245
    1UNL    H23   58  -0.222  -0.310  -0.155
    1UNL    H24   59  -0.423  -0.199  -0.170
    1UNL    H25   60  -0.347  -0.276   0.035
    1UNL    H26   61  -0.304  -0.026   0.169
    1UNL    H27   62  -0.227  -0.293   0.264
    1UNL    H28   63  -0.027  -0.361   0.082
    1UNL    H29   64  -0.098  -0.105   0.312
    1UNL    H30   65   0.131  -0.184   0.274
   0.00000   0.00000   0.00000   0.00000   0.00000   0.00000   0.00000   0.00000   0.00000
Generated with MDTraj, t= 68.0
 65
    1UNL     C1    1   0.072   0.584  -0.245
    1UNL     O1    2   0.066   0.444  -0.244
    1UNL     C2    3   0.046   0.384  -0.116
    1UNL     C3    4  -0.097   0.392  -0.068
    1UNL     C4    5  -0.104   0.304   0.063
    1UNL     C5    6  -0.251   0.304   0.122
    1UNL     O2    7  -0.022   0.369   0.158
    1UNL     C6    8   0.114   0.357   0.101
    1UNL     O3    9   0.129   0.442  -0.017
    1UNL     C7   10   0.118   0.213   0.046
    1UNL     C8   11   0.232   0.122   0.085
    1UNL     O4   12   0.243   0.004   0.009
    1UNL     C9   13   0.278  -0.111   0.077
    1UNL     O5   14   0.305  -0.114   0.197
    1UNL    C10   15   0.270  -0.233  -0.004
    1UNL    C11   16   0.312  -0.359   0.050
    1UNL    C12   17   0.279  -0.480  -0.012
    1UNL    C13   18   0.194  -0.477  -0.119
    1UNL    C14   19   0.163  -0.355  -0.186
    1UNL    C15   20   0.199  -0.235  -0.124
    1UNL    C16   21   0.098   0.236  -0.113
    1UNL    C17   22  -0.013   0.129  -0.104
    1UNL    C18   23  -0.036   0.165   0.038
    1UNL     O6   24  -0.082   0.065   0.128
    1UNL    C19   25  -0.033  -0.070   0.106
    1UNL     O7   26  -0.064  -0.117  -0.026
    1UNL    C20   27  -0.206  -0.137  -0.049
    1UNL    C21   28  -0.238  -0.215  -0.174
    1UNL     O8   29  -0.368  -0.200  -0.227
    1UNL    C22   30  -0.274  -0.201   0.076
    1UNL     O9   31  -0.330  -0.092   0.155
    1UNL    C23   32  -0.166  -0.281   0.158
    1UNL    O10   33  -0.099  -0.382   0.089
    1UNL    C24   34  -0.069  -0.181   0.220
    1UNL    O11   35   0.045  -0.241   0.274
    1UNL     H1   36  -0.023   0.621  -0.217
    1UNL     H2   37   0.106   0.622  -0.341
    1UNL     H3   38   0.135   0.625  -0.162
    1UNL     H4   39  -0.121   0.506  -0.045
    1UNL     H5   40  -0.165   0.349  -0.141
    1UNL     H6   41  -0.268   0.236   0.205
    1UNL     H7   42  -0.332   0.271   0.049
    1UNL     H8   43  -0.276   0.406   0.166
    1UNL     H9   44   0.194   0.382   0.175
    1UNL    H10   45   0.328   0.180   0.072
    1UNL    H11   46   0.226   0.080   0.181
    1UNL    H12   47   0.360  -0.356   0.155
    1UNL    H13   48   0.293  -0.564   0.052
    1UNL    H14   49   0.169  -0.568  -0.167
    1UNL    H15   50   0.129  -0.347  -0.282
    1UNL    H16   51   0.185  -0.137  -0.166
    1UNL    H17   52   0.186   0.196  -0.175
    1UNL    H18   53   0.024   0.031  -0.131
    1UNL    H19   54  -0.105   0.133  -0.169
    1UNL    H20   55   0.070  -0.053   0.106
    1UNL    H21   56  -0.252  -0.037  -0.065
    1UNL    H22   57  -0.177  -0.171  -0.251
    1UNL    H23   58  -0.215  -0.314  -0.167
    1UNL    H24   59  -0.441  -0.192  -0.161
    1UNL    H25   60  -0.350  -0.268   0.037
    1UNL    H26   61  -0.272  -0.014   0.158
    1UNL    H27   62  -0.220  -0.328   0.238
    1UNL    H28   63  -0.036  -0.349   0.018
    1UNL    H29   64  -0.108  -0.124   0.305
    1UNL    H30   65   0.128  -0.188   0.268
   0.00000   0.00000   0.00000   0.00000   0.00000   0.00000   0.00000   0.00000   0.00000
Generated with MDTraj, t= 69.0
 65
    1UNL     C1    1   0.083   0.591  -0.218
    1UNL     O1    2   0.080   0.453  -0.233
    1UNL     C2    3   0.048   0.382  -0.111
    1UNL     C3    4  -0.099   0.374  -0.084
    1UNL     C4    5  -0.115   0.289   0.045
    1UNL     C5    6  -0.255   0.254   0.098
    1UNL     O2    7  -0.040   0.354   0.154
    1UNL     C6    8   0.097   0.353   0.110
    1UNL     O3    9   0.116   0.444  -0.001
    1UNL     C7   10   0.119   0.207   0.049
    1UNL     C8   11   0.239   0.126   0.083
    1UNL     O4   12   0.254   0.014  -0.001
    1UNL     C9   13   0.278  -0.100   0.069
    1UNL     O5   14   0.318  -0.096   0.185
    1UNL    C10   15   0.247  -0.235  -0.001
    1UNL    C11   16   0.268  -0.345   0.069
    1UNL    C12   17   0.235  -0.467   0.011
    1UNL    C13   18   0.187  -0.475  -0.120
    1UNL    C14   19   0.161  -0.358  -0.197
    1UNL    C15   20   0.204  -0.240  -0.133
    1UNL    C16   21   0.111   0.241  -0.106
    1UNL    C17   22   0.011   0.126  -0.118
    1UNL    C18   23  -0.028   0.156   0.033
    1UNL     O6   24  -0.079   0.063   0.127
    1UNL    C19   25  -0.026  -0.067   0.097
    1UNL     O7   26  -0.065  -0.117  -0.032
    1UNL    C20   27  -0.202  -0.136  -0.043
    1UNL    C21   28  -0.241  -0.226  -0.161
    1UNL     O8   29  -0.372  -0.204  -0.205
    1UNL    C22   30  -0.269  -0.187   0.084
    1UNL     O9   31  -0.323  -0.074   0.159
    1UNL    C23   32  -0.164  -0.271   0.166
    1UNL    O10   33  -0.100  -0.372   0.087
    1UNL    C24   34  -0.050  -0.172   0.218
    1UNL    O11   35   0.063  -0.249   0.245
    1UNL     H1   36  -0.009   0.621  -0.173
    1UNL     H2   37   0.099   0.635  -0.312
    1UNL     H3   38   0.157   0.628  -0.144
    1UNL     H4   39  -0.130   0.467  -0.065
    1UNL     H5   40  -0.150   0.331  -0.174
    1UNL     H6   41  -0.257   0.200   0.191
    1UNL     H7   42  -0.308   0.193   0.019
    1UNL     H8   43  -0.318   0.350   0.110
    1UNL     H9   44   0.173   0.379   0.188
    1UNL    H10   45   0.334   0.188   0.062
    1UNL    H11   46   0.234   0.099   0.187
    1UNL    H12   47   0.286  -0.342   0.167
    1UNL    H13   48   0.246  -0.564   0.064
    1UNL    H14   49   0.158  -0.572  -0.167
    1UNL    H15   50   0.164  -0.355  -0.313
    1UNL    H16   51   0.210  -0.151  -0.193
    1UNL    H17   52   0.216   0.217  -0.146
    1UNL    H18   53   0.047   0.020  -0.121
    1UNL    H19   54  -0.075   0.137  -0.182
    1UNL    H20   55   0.085  -0.048   0.091
    1UNL    H21   56  -0.243  -0.034  -0.059
    1UNL    H22   57  -0.172  -0.204  -0.241
    1UNL    H23   58  -0.224  -0.323  -0.135
    1UNL    H24   59  -0.440  -0.245  -0.146
    1UNL    H25   60  -0.345  -0.258   0.055
    1UNL    H26   61  -0.250  -0.007   0.162
    1UNL    H27   62  -0.227  -0.317   0.241
    1UNL    H28   63  -0.026  -0.337   0.036
    1UNL    H29   64  -0.076  -0.126   0.313
    1UNL    H30   65   0.137  -0.186   0.261
   0.00000   0.00000   0.00000   0.00000   0.00000   0.00000   0.00000   0.00000   0.00000
Generated with MDTraj, t= 70.0
 65
    1UNL     C1    1   0.097   0.605  -0.213
    1UNL     O1    2   0.077   0.468  -0.232
    1UNL     C2    3   0.054   0.395  -0.110
    1UNL     C3    4  -0.095   0.380  -0.076
    1UNL     C4    5  -0.112   0.288   0.046
    1UNL     C5    6  -0.254   0.261   0.081
    1UNL     O2    7  -0.039   0.351   0.150
    1UNL     C6    8   0.095   0.350   0.110
    1UNL     O3    9   0.119   0.448   0.012
    1UNL     C7   10   0.118   0.210   0.037
    1UNL     C8   11   0.226   0.126   0.087
    1UNL     O4   12   0.263   0.020   0.001
    1UNL     C9   13   0.289  -0.098   0.068
    1UNL     O5   14   0.309  -0.097   0.189
    1UNL    C10   15   0.285  -0.228  -0.007
    1UNL    C11   16   0.274  -0.347   0.063
    1UNL    C12   17   0.220  -0.467   0.010
    1UNL    C13   18   0.170  -0.459  -0.121
    1UNL    C14   19   0.181  -0.345  -0.194
    1UNL    C15   20   0.238  -0.226  -0.139
    1UNL    C16   21   0.111   0.247  -0.122
    1UNL    C17   22   0.005   0.132  -0.135
    1UNL    C18   23  -0.032   0.155   0.020
    1UNL     O6   24  -0.074   0.047   0.109
    1UNL    C19   25  -0.023  -0.087   0.090
    1UNL     O7   26  -0.062  -0.134  -0.039
    1UNL    C20   27  -0.206  -0.134  -0.045
    1UNL    C21   28  -0.249  -0.230  -0.159
    1UNL     O8   29  -0.389  -0.228  -0.177
    1UNL    C22   30  -0.278  -0.193   0.089
    1UNL     O9   31  -0.314  -0.075   0.159
    1UNL    C23   32  -0.172  -0.269   0.177
    1UNL    O10   33  -0.132  -0.392   0.116
    1UNL    C24   34  -0.051  -0.178   0.209
    1UNL    O11   35   0.057  -0.256   0.253
    1UNL     H1   36   0.003   0.645  -0.182
    1UNL     H2   37   0.129   0.646  -0.302
    1UNL     H3   38   0.166   0.632  -0.130
    1UNL     H4   39  -0.131   0.471  -0.036
    1UNL     H5   40  -0.153   0.357  -0.163
    1UNL     H6   41  -0.246   0.214   0.183
    1UNL     H7   42  -0.309   0.199   0.005
    1UNL     H8   43  -0.313   0.357   0.095
    1UNL     H9   44   0.153   0.361   0.205
    1UNL    H10   45   0.314   0.199   0.112
    1UNL    H11   46   0.188   0.086   0.182
    1UNL    H12   47   0.294  -0.342   0.177
    1UNL    H13   48   0.198  -0.541   0.082
    1UNL    H14   49   0.140  -0.546  -0.169
    1UNL    H15   50   0.154  -0.338  -0.291
    1UNL    H16   51   0.271  -0.142  -0.203
    1UNL    H17   52   0.208   0.228  -0.180
    1UNL    H18   53   0.039   0.024  -0.134
    1UNL    H19   54  -0.075   0.153  -0.201
    1UNL    H20   55   0.085  -0.072   0.079
    1UNL    H21   56  -0.241  -0.030  -0.057
    1UNL    H22   57  -0.196  -0.196  -0.250
    1UNL    H23   58  -0.216  -0.324  -0.133
    1UNL    H24   59  -0.414  -0.168  -0.250
    1UNL    H25   60  -0.361  -0.262   0.076
    1UNL    H26   61  -0.235  -0.018   0.142
    1UNL    H27   62  -0.204  -0.291   0.280
    1UNL    H28   63  -0.045  -0.373   0.071
    1UNL    H29   64  -0.076  -0.121   0.297
    1UNL    H30   65   0.148  -0.210   0.259
   0.00000   0.00000   0.00000   0.00000   0.00000   0.00000   0.00000   0.00000   0.00000
Generated with MDTraj, t= 71.0
 65
    1UNL     C1    1   0.093   0.591  -0.209
    1UNL     O1    2   0.081   0.453  -0.238
    1UNL     C2    3   0.061   0.386  -0.110
    1UNL     C3    4  -0.096   0.383  -0.081
    1UNL     C4    5  -0.111   0.295   0.049
    1UNL     C5    6  -0.258   0.282   0.090
    1UNL     O2    7  -0.025   0.365   0.151
    1UNL     C6    8   0.110   0.350   0.110
    1UNL     O3    9   0.127   0.447   0.005
    1UNL     C7   10   0.120   0.209   0.050
    1UNL     C8   11   0.243   0.128   0.097
    1UNL     O4   12   0.258   0.019   0.009
    1UNL     C9   13   0.288  -0.098   0.077
    1UNL     O5   14   0.314  -0.091   0.196
    1UNL    C10   15   0.269  -0.227   0.001
    1UNL    C11   16   0.279  -0.358   0.058
    1UNL    C12   17   0.251  -0.473  -0.018
    1UNL    C13   18   0.209  -0.456  -0.152
    1UNL    C14   19   0.204  -0.326  -0.202
    1UNL    C15   20   0.238  -0.213  -0.130
    1UNL    C16   21   0.126   0.236  -0.107
    1UNL    C17   22   0.011   0.128  -0.116
    1UNL    C18   23  -0.029   0.162   0.034
    1UNL     O6   24  -0.082   0.051   0.112
    1UNL    C19   25  -0.026  -0.075   0.074
    1UNL     O7   26  -0.086  -0.135  -0.047
    1UNL    C20   27  -0.228  -0.155  -0.045
    1UNL    C21   28  -0.269  -0.267  -0.151
    1UNL     O8   29  -0.407  -0.254  -0.186
    1UNL    C22   30  -0.287  -0.185   0.097
    1UNL     O9   31  -0.346  -0.065   0.150
    1UNL    C23   32  -0.180  -0.258   0.181
    1UNL    O10   33  -0.134  -0.382   0.124
    1UNL    C24   34  -0.050  -0.168   0.202
    1UNL    O11   35   0.064  -0.250   0.233
    1UNL     H1   36  -0.000   0.628  -0.164
    1UNL     H2   37   0.110   0.640  -0.298
    1UNL     H3   38   0.175   0.616  -0.136
    1UNL     H4   39  -0.136   0.491  -0.071
    1UNL     H5   40  -0.150   0.347  -0.157
    1UNL     H6   41  -0.262   0.236   0.198
    1UNL     H7   42  -0.317   0.230   0.011
    1UNL     H8   43  -0.311   0.380   0.098
    1UNL     H9   44   0.176   0.375   0.195
    1UNL    H10   45   0.338   0.198   0.106
    1UNL    H11   46   0.221   0.094   0.200
    1UNL    H12   47   0.269  -0.366   0.164
    1UNL    H13   48   0.237  -0.570   0.032
    1UNL    H14   49   0.174  -0.546  -0.207
    1UNL    H15   50   0.191  -0.320  -0.313
    1UNL    H16   51   0.220  -0.119  -0.174
    1UNL    H17   52   0.223   0.212  -0.164
    1UNL    H18   53   0.048   0.026  -0.130
    1UNL    H19   54  -0.059   0.143  -0.196
    1UNL    H20   55   0.076  -0.053   0.065
    1UNL    H21   56  -0.271  -0.060  -0.075
    1UNL    H22   57  -0.212  -0.250  -0.246
    1UNL    H23   58  -0.250  -0.363  -0.113
    1UNL    H24   59  -0.456  -0.285  -0.108
    1UNL    H25   60  -0.368  -0.257   0.086
    1UNL    H26   61  -0.272  -0.004   0.132
    1UNL    H27   62  -0.241  -0.274   0.274
    1UNL    H28   63  -0.045  -0.400   0.162
    1UNL    H29   64  -0.071  -0.104   0.288
    1UNL    H30   65   0.142  -0.196   0.229
   0.00000   0.00000   0.00000   0.00000   0.00000   0.00000   0.00000   0.00000   0.00000
Generated with MDTraj, t= 72.0
 65
    1UNL     C1    1   0.103   0.586  -0.241
    1UNL     O1    2   0.101   0.444  -0.244
    1UNL     C2    3   0.078   0.384  -0.113
    1UNL     C3    4  -0.080   0.397  -0.073
    1UNL     C4    5  -0.106   0.310   0.054
    1UNL     C5    6  -0.254   0.293   0.091
    1UNL     O2    7  -0.033   0.380   0.154
    1UNL     C6    8   0.108   0.360   0.112
    1UNL     O3    9   0.134   0.452   0.002
    1UNL     C7   10   0.113   0.214   0.049
    1UNL     C8   11   0.216   0.113   0.102
    1UNL     O4   12   0.243   0.013   0.007
    1UNL     C9   13   0.268  -0.104   0.076
    1UNL     O5   14   0.277  -0.106   0.198
    1UNL    C10   15   0.278  -0.229  -0.009
    1UNL    C11   16   0.307  -0.354   0.044
    1UNL    C12   17   0.302  -0.464  -0.041
    1UNL    C13   18   0.255  -0.457  -0.171
    1UNL    C14   19   0.232  -0.333  -0.232
    1UNL    C15   20   0.241  -0.227  -0.148
    1UNL    C16   21   0.119   0.239  -0.102
    1UNL    C17   22   0.001   0.129  -0.114
    1UNL    C18   23  -0.027   0.162   0.035
    1UNL     O6   24  -0.083   0.058   0.122
    1UNL    C19   25  -0.047  -0.074   0.091
    1UNL     O7   26  -0.099  -0.119  -0.025
    1UNL    C20   27  -0.242  -0.138  -0.036
    1UNL    C21   28  -0.255  -0.258  -0.134
    1UNL     O8   29  -0.390  -0.294  -0.172
    1UNL    C22   30  -0.297  -0.179   0.107
    1UNL     O9   31  -0.340  -0.064   0.172
    1UNL    C23   32  -0.193  -0.258   0.186
    1UNL    O10   33  -0.161  -0.373   0.109
    1UNL    C24   34  -0.070  -0.176   0.211
    1UNL    O11   35   0.041  -0.267   0.228
    1UNL     H1   36  -0.003   0.622  -0.251
    1UNL     H2   37   0.161   0.613  -0.324
    1UNL     H3   38   0.148   0.628  -0.145
    1UNL     H4   39  -0.118   0.501  -0.043
    1UNL     H5   40  -0.147   0.374  -0.160
    1UNL     H6   41  -0.260   0.232   0.190
    1UNL     H7   42  -0.310   0.260  -0.003
    1UNL     H8   43  -0.308   0.388   0.115
    1UNL     H9   44   0.181   0.379   0.191
    1UNL    H10   45   0.312   0.177   0.124
    1UNL    H11   46   0.185   0.078   0.202
    1UNL    H12   47   0.323  -0.354   0.149
    1UNL    H13   48   0.303  -0.561   0.002
    1UNL    H14   49   0.259  -0.542  -0.232
    1UNL    H15   50   0.215  -0.323  -0.335
    1UNL    H16   51   0.230  -0.127  -0.192
    1UNL    H17   52   0.225   0.223  -0.141
    1UNL    H18   53   0.037   0.031  -0.122
    1UNL    H19   54  -0.084   0.147  -0.184
    1UNL    H20   55   0.059  -0.073   0.086
    1UNL    H21   56  -0.291  -0.050  -0.073
    1UNL    H22   57  -0.208  -0.231  -0.233
    1UNL    H23   58  -0.213  -0.348  -0.091
    1UNL    H24   59  -0.449  -0.288  -0.094
    1UNL    H25   60  -0.381  -0.251   0.100
    1UNL    H26   61  -0.267   0.005   0.168
    1UNL    H27   62  -0.237  -0.290   0.285
    1UNL    H28   63  -0.068  -0.399   0.127
    1UNL    H29   64  -0.070  -0.123   0.310
    1UNL    H30   65   0.128  -0.212   0.229
   0.00000   0.00000   0.00000   0.00000   0.00000   0.00000   0.00000   0.00000   0.00000
Generated with MDTraj, t= 73.0
 65
    1UNL     C1    1   0.109   0.572  -0.225
    1UNL     O1    2   0.099   0.436  -0.242
    1UNL     C2    3   0.066   0.381  -0.116
    1UNL     C3    4  -0.085   0.396  -0.079
    1UNL     C4    5  -0.114   0.306   0.052
    1UNL     C5    6  -0.253   0.296   0.101
    1UNL     O2    7  -0.027   0.373   0.152
    1UNL     C6    8   0.112   0.350   0.112
    1UNL     O3    9   0.140   0.430  -0.005
    1UNL     C7   10   0.109   0.206   0.056
    1UNL     C8   11   0.214   0.107   0.106
    1UNL     O4   12   0.246   0.009   0.010
    1UNL     C9   13   0.273  -0.113   0.069
    1UNL     O5   14   0.287  -0.125   0.188
    1UNL    C10   15   0.288  -0.233  -0.021
    1UNL    C11   16   0.336  -0.354   0.024
    1UNL    C12   17   0.344  -0.465  -0.055
    1UNL    C13   18   0.320  -0.454  -0.190
    1UNL    C14   19   0.266  -0.337  -0.240
    1UNL    C15   20   0.252  -0.230  -0.159
    1UNL    C16   21   0.102   0.225  -0.103
    1UNL    C17   22  -0.016   0.123  -0.104
    1UNL    C18   23  -0.046   0.167   0.039
    1UNL     O6   24  -0.089   0.071   0.132
    1UNL    C19   25  -0.055  -0.062   0.098
    1UNL     O7   26  -0.106  -0.112  -0.022
    1UNL    C20   27  -0.246  -0.141  -0.040
    1UNL    C21   28  -0.263  -0.252  -0.137
    1UNL     O8   29  -0.399  -0.284  -0.166
    1UNL    C22   30  -0.308  -0.161   0.100
    1UNL     O9   31  -0.345  -0.032   0.161
    1UNL    C23   32  -0.217  -0.242   0.192
    1UNL    O10   33  -0.187  -0.374   0.140
    1UNL    C24   34  -0.083  -0.166   0.217
    1UNL    O11   35   0.025  -0.254   0.243
    1UNL     H1   36   0.005   0.617  -0.202
    1UNL     H2   37   0.142   0.600  -0.323
    1UNL     H3   38   0.188   0.600  -0.149
    1UNL     H4   39  -0.114   0.502  -0.059
    1UNL     H5   40  -0.176   0.366  -0.156
    1UNL     H6   41  -0.247   0.252   0.206
    1UNL     H7   42  -0.312   0.247   0.014
    1UNL     H8   43  -0.302   0.399   0.110
    1UNL     H9   44   0.190   0.366   0.186
    1UNL    H10   45   0.307   0.165   0.146
    1UNL    H11   46   0.172   0.063   0.194
    1UNL    H12   47   0.347  -0.359   0.140
    1UNL    H13   48   0.392  -0.555  -0.015
    1UNL    H14   49   0.336  -0.537  -0.260
    1UNL    H15   50   0.264  -0.327  -0.351
    1UNL    H16   51   0.232  -0.133  -0.199
    1UNL    H17   52   0.196   0.210  -0.168
    1UNL    H18   53   0.036   0.032  -0.107
    1UNL    H19   54  -0.078   0.146  -0.192
    1UNL    H20   55   0.055  -0.053   0.084
    1UNL    H21   56  -0.296  -0.052  -0.075
    1UNL    H22   57  -0.226  -0.214  -0.238
    1UNL    H23   58  -0.209  -0.345  -0.106
    1UNL    H24   59  -0.436  -0.363  -0.119
    1UNL    H25   60  -0.402  -0.219   0.091
    1UNL    H26   61  -0.262   0.014   0.175
    1UNL    H27   62  -0.264  -0.256   0.293
    1UNL    H28   63  -0.090  -0.387   0.156
    1UNL    H29   64  -0.094  -0.104   0.310
    1UNL    H30   65   0.112  -0.211   0.243
   0.00000   0.00000   0.00000   0.00000   0.00000   0.00000   0.00000   0.00000   0.00000
Generated with MDTraj, t= 74.0
 65
    1UNL     C1    1   0.125   0.573  -0.226
    1UNL     O1    2   0.077   0.439  -0.237
    1UNL     C2    3   0.062   0.377  -0.113
    1UNL     C3    4  -0.089   0.389  -0.070
    1UNL     C4    5  -0.108   0.306   0.060
    1UNL     C5    6  -0.249   0.297   0.109
    1UNL     O2    7  -0.018   0.362   0.156
    1UNL     C6    8   0.116   0.352   0.109
    1UNL     O3    9   0.140   0.437  -0.004
    1UNL     C7   10   0.112   0.202   0.042
    1UNL     C8   11   0.225   0.104   0.087
    1UNL     O4   12   0.224  -0.010   0.004
    1UNL     C9   13   0.263  -0.126   0.067
    1UNL     O5   14   0.265  -0.142   0.187
    1UNL    C10   15   0.310  -0.232  -0.027
    1UNL    C11   16   0.374  -0.351   0.016
    1UNL    C12   17   0.403  -0.457  -0.066
    1UNL    C13   18   0.367  -0.445  -0.200
    1UNL    C14   19   0.308  -0.329  -0.242
    1UNL    C15   20   0.276  -0.222  -0.159
    1UNL    C16   21   0.102   0.228  -0.110
    1UNL    C17   22  -0.017   0.125  -0.117
    1UNL    C18   23  -0.044   0.161   0.030
    1UNL     O6   24  -0.101   0.065   0.118
    1UNL    C19   25  -0.057  -0.068   0.099
    1UNL     O7   26  -0.097  -0.131  -0.021
    1UNL    C20   27  -0.243  -0.149  -0.033
    1UNL    C21   28  -0.293  -0.262  -0.122
    1UNL     O8   29  -0.422  -0.245  -0.170
    1UNL    C22   30  -0.320  -0.157   0.100
    1UNL     O9   31  -0.358  -0.024   0.138
    1UNL    C23   32  -0.239  -0.228   0.215
    1UNL    O10   33  -0.217  -0.367   0.183
    1UNL    C24   34  -0.092  -0.160   0.228
    1UNL    O11   35   0.008  -0.255   0.247
    1UNL     H1   36   0.050   0.637  -0.166
    1UNL     H2   37   0.130   0.603  -0.330
    1UNL     H3   38   0.228   0.574  -0.186
    1UNL     H4   39  -0.122   0.496  -0.044
    1UNL     H5   40  -0.169   0.362  -0.142
    1UNL     H6   41  -0.223   0.253   0.209
    1UNL     H7   42  -0.320   0.247   0.032
    1UNL     H8   43  -0.297   0.399   0.134
    1UNL     H9   44   0.186   0.383   0.187
    1UNL    H10   45   0.331   0.147   0.076
    1UNL    H11   46   0.221   0.076   0.189
    1UNL    H12   47   0.390  -0.360   0.114
    1UNL    H13   48   0.441  -0.552  -0.030
    1UNL    H14   49   0.388  -0.528  -0.264
    1UNL    H15   50   0.289  -0.324  -0.348
    1UNL    H16   51   0.226  -0.135  -0.203
    1UNL    H17   52   0.190   0.202  -0.179
    1UNL    H18   53   0.017   0.021  -0.123
    1UNL    H19   54  -0.097   0.156  -0.179
    1UNL    H20   55   0.056  -0.055   0.088
    1UNL    H21   56  -0.279  -0.059  -0.083
    1UNL    H22   57  -0.221  -0.261  -0.210
    1UNL    H23   58  -0.289  -0.359  -0.061
    1UNL    H24   59  -0.491  -0.267  -0.102
    1UNL    H25   60  -0.412  -0.218   0.084
    1UNL    H26   61  -0.271   0.019   0.161
    1UNL    H27   62  -0.303  -0.228   0.305
    1UNL    H28   63  -0.122  -0.384   0.177
    1UNL    H29   64  -0.105  -0.105   0.326
    1UNL    H30   65   0.093  -0.211   0.225
   0.00000   0.00000   0.00000   0.00000   0.00000   0.00000   0.00000   0.00000   0.00000
Generated with MDTraj, t= 75.0
 65
    1UNL     C1    1   0.124   0.573  -0.218
    1UNL     O1    2   0.087   0.435  -0.245
    1UNL     C2    3   0.058   0.373  -0.114
    1UNL     C3    4  -0.088   0.389  -0.076
    1UNL     C4    5  -0.111   0.301   0.057
    1UNL     C5    6  -0.255   0.311   0.108
    1UNL     O2    7  -0.021   0.354   0.162
    1UNL     C6    8   0.109   0.333   0.106
    1UNL     O3    9   0.146   0.423  -0.004
    1UNL     C7   10   0.104   0.190   0.035
    1UNL     C8   11   0.211   0.094   0.083
    1UNL     O4   12   0.236  -0.012  -0.006
    1UNL     C9   13   0.264  -0.131   0.052
    1UNL     O5   14   0.250  -0.155   0.169
    1UNL    C10   15   0.312  -0.235  -0.039
    1UNL    C11   16   0.386  -0.337   0.022
    1UNL    C12   17   0.443  -0.429  -0.062
    1UNL    C13   18   0.424  -0.433  -0.196
    1UNL    C14   19   0.352  -0.336  -0.258
    1UNL    C15   20   0.291  -0.236  -0.178
    1UNL    C16   21   0.096   0.217  -0.115
    1UNL    C17   22  -0.025   0.123  -0.124
    1UNL    C18   23  -0.046   0.153   0.025
    1UNL     O6   24  -0.095   0.065   0.126
    1UNL    C19   25  -0.069  -0.072   0.100
    1UNL     O7   26  -0.118  -0.124  -0.019
    1UNL    C20   27  -0.265  -0.125  -0.020
    1UNL    C21   28  -0.308  -0.250  -0.109
    1UNL     O8   29  -0.420  -0.235  -0.191
    1UNL    C22   30  -0.335  -0.143   0.125
    1UNL     O9   31  -0.354  -0.014   0.179
    1UNL    C23   32  -0.238  -0.223   0.222
    1UNL    O10   33  -0.243  -0.362   0.191
    1UNL    C24   34  -0.094  -0.166   0.230
    1UNL    O11   35  -0.005  -0.268   0.250
    1UNL     H1   36   0.037   0.639  -0.186
    1UNL     H2   37   0.161   0.609  -0.315
    1UNL     H3   38   0.211   0.580  -0.152
    1UNL     H4   39  -0.116   0.501  -0.066
    1UNL     H5   40  -0.151   0.358  -0.148
    1UNL     H6   41  -0.266   0.272   0.213
    1UNL     H7   42  -0.328   0.279   0.023
    1UNL     H8   43  -0.277   0.423   0.115
    1UNL     H9   44   0.178   0.354   0.187
    1UNL    H10   45   0.312   0.142   0.090
    1UNL    H11   46   0.195   0.053   0.178
    1UNL    H12   47   0.395  -0.344   0.135
    1UNL    H13   48   0.484  -0.516  -0.012
    1UNL    H14   49   0.476  -0.512  -0.249
    1UNL    H15   50   0.331  -0.335  -0.361
    1UNL    H16   51   0.216  -0.174  -0.222
    1UNL    H17   52   0.191   0.185  -0.170
    1UNL    H18   53  -0.009   0.016  -0.144
    1UNL    H19   54  -0.093   0.167  -0.186
    1UNL    H20   55   0.044  -0.080   0.081
    1UNL    H21   56  -0.298  -0.034  -0.072
    1UNL    H22   57  -0.215  -0.272  -0.170
    1UNL    H23   58  -0.330  -0.329  -0.027
    1UNL    H24   59  -0.472  -0.159  -0.155
    1UNL    H25   60  -0.438  -0.188   0.119
    1UNL    H26   61  -0.268   0.033   0.190
    1UNL    H27   62  -0.277  -0.214   0.324
    1UNL    H28   63  -0.150  -0.398   0.197
    1UNL    H29   64  -0.090  -0.109   0.326
    1UNL    H30   65   0.093  -0.242   0.233
   0.00000   0.00000   0.00000   0.00000   0.00000   0.00000   0.00000   0.00000   0.00000
Generated with MDTraj, t= 76.0
 65
    1UNL     C1    1   0.110   0.559  -0.237
    1UNL     O1    2   0.101   0.421  -0.249
    1UNL     C2    3   0.055   0.370  -0.118
    1UNL     C3    4  -0.087   0.389  -0.080
    1UNL     C4    5  -0.110   0.308   0.051
    1UNL     C5    6  -0.259   0.309   0.101
    1UNL     O2    7  -0.023   0.365   0.151
    1UNL     C6    8   0.113   0.339   0.107
    1UNL     O3    9   0.139   0.420  -0.005
    1UNL     C7   10   0.108   0.186   0.045
    1UNL     C8   11   0.212   0.081   0.096
    1UNL     O4   12   0.228  -0.018  -0.004
    1UNL     C9   13   0.265  -0.137   0.045
    1UNL     O5   14   0.255  -0.171   0.160
    1UNL    C10   15   0.329  -0.244  -0.044
    1UNL    C11   16   0.407  -0.333   0.016
    1UNL    C12   17   0.472  -0.430  -0.061
    1UNL    C13   18   0.465  -0.427  -0.195
    1UNL    C14   19   0.387  -0.333  -0.262
    1UNL    C15   20   0.321  -0.237  -0.184
    1UNL    C16   21   0.096   0.208  -0.107
    1UNL    C17   22  -0.028   0.113  -0.110
    1UNL    C18   23  -0.049   0.159   0.038
    1UNL     O6   24  -0.092   0.066   0.144
    1UNL    C19   25  -0.068  -0.069   0.110
    1UNL     O7   26  -0.137  -0.114  -0.008
    1UNL    C20   27  -0.282  -0.118  -0.008
    1UNL    C21   28  -0.330  -0.238  -0.105
    1UNL     O8   29  -0.456  -0.214  -0.172
    1UNL    C22   30  -0.341  -0.128   0.132
    1UNL     O9   31  -0.368  -0.005   0.191
    1UNL    C23   32  -0.250  -0.223   0.214
    1UNL    O10   33  -0.245  -0.355   0.157
    1UNL    C24   34  -0.099  -0.170   0.233
    1UNL    O11   35  -0.011  -0.279   0.235
    1UNL     H1   36   0.010   0.605  -0.228
    1UNL     H2   37   0.157   0.592  -0.333
    1UNL     H3   38   0.179   0.589  -0.162
    1UNL     H4   39  -0.112   0.487  -0.056
    1UNL     H5   40  -0.159   0.351  -0.148
    1UNL     H6   41  -0.248   0.281   0.212
    1UNL     H7   42  -0.330   0.242   0.042
    1UNL     H8   43  -0.304   0.412   0.105
    1UNL     H9   44   0.181   0.355   0.191
    1UNL    H10   45   0.310   0.126   0.114
    1UNL    H11   46   0.186   0.031   0.182
    1UNL    H12   47   0.420  -0.342   0.122
    1UNL    H13   48   0.544  -0.497  -0.015
    1UNL    H14   49   0.523  -0.496  -0.256
    1UNL    H15   50   0.387  -0.338  -0.378
    1UNL    H16   51   0.264  -0.160  -0.237
    1UNL    H17   52   0.194   0.179  -0.159
    1UNL    H18   53  -0.007   0.011  -0.132
    1UNL    H19   54  -0.101   0.150  -0.176
    1UNL    H20   55   0.043  -0.072   0.092
    1UNL    H21   56  -0.315  -0.021  -0.052
    1UNL    H22   57  -0.251  -0.247  -0.186
    1UNL    H23   58  -0.343  -0.334  -0.039
    1UNL    H24   59  -0.526  -0.174  -0.117
    1UNL    H25   60  -0.445  -0.172   0.128
    1UNL    H26   61  -0.291   0.053   0.188
    1UNL    H27   62  -0.292  -0.232   0.314
    1UNL    H28   63  -0.152  -0.377   0.147
    1UNL    H29   64  -0.081  -0.115   0.325
    1UNL    H30   65   0.074  -0.241   0.214
   0.00000   0.00000   0.00000   0.00000   0.00000   0.00000   0.00000   0.00000   0.00000
Generated with MDTraj, t= 77.0
 65
    1UNL     C1    1   0.103   0.541  -0.250
    1UNL     O1    2   0.091   0.404  -0.254
    1UNL     C2    3   0.067   0.359  -0.124
    1UNL     C3    4  -0.078   0.386  -0.076
    1UNL     C4    5  -0.104   0.302   0.058
    1UNL     C5    6  -0.243   0.295   0.116
    1UNL     O2    7  -0.007   0.358   0.147
    1UNL     C6    8   0.124   0.329   0.096
    1UNL     O3    9   0.149   0.419  -0.013
    1UNL     C7   10   0.110   0.179   0.036
    1UNL     C8   11   0.213   0.082   0.090
    1UNL     O4   12   0.245  -0.020  -0.002
    1UNL     C9   13   0.269  -0.139   0.067
    1UNL     O5   14   0.244  -0.170   0.183
    1UNL    C10   15   0.344  -0.228  -0.024
    1UNL    C11   16   0.420  -0.337   0.022
    1UNL    C12   17   0.489  -0.426  -0.066
    1UNL    C13   18   0.473  -0.402  -0.195
    1UNL    C14   19   0.404  -0.293  -0.242
    1UNL    C15   20   0.337  -0.207  -0.159
    1UNL    C16   21   0.091   0.203  -0.121
    1UNL    C17   22  -0.027   0.106  -0.114
    1UNL    C18   23  -0.050   0.149   0.031
    1UNL     O6   24  -0.096   0.054   0.128
    1UNL    C19   25  -0.079  -0.083   0.098
    1UNL     O7   26  -0.148  -0.123  -0.020
    1UNL    C20   27  -0.295  -0.112  -0.012
    1UNL    C21   28  -0.368  -0.200  -0.117
    1UNL     O8   29  -0.514  -0.177  -0.124
    1UNL    C22   30  -0.341  -0.135   0.129
    1UNL     O9   31  -0.363  -0.016   0.195
    1UNL    C23   32  -0.250  -0.230   0.207
    1UNL    O10   33  -0.243  -0.353   0.141
    1UNL    C24   34  -0.107  -0.178   0.218
    1UNL    O11   35  -0.013  -0.278   0.228
    1UNL     H1   36   0.006   0.585  -0.237
    1UNL     H2   37   0.143   0.572  -0.350
    1UNL     H3   38   0.176   0.570  -0.183
    1UNL     H4   39  -0.081   0.480  -0.043
    1UNL     H5   40  -0.152   0.373  -0.156
    1UNL     H6   41  -0.243   0.240   0.220
    1UNL     H7   42  -0.312   0.244   0.044
    1UNL     H8   43  -0.274   0.400   0.140
    1UNL     H9   44   0.203   0.340   0.172
    1UNL    H10   45   0.305   0.134   0.115
    1UNL    H11   46   0.177   0.038   0.177
    1UNL    H12   47   0.447  -0.343   0.127
    1UNL    H13   48   0.554  -0.500  -0.021
    1UNL    H14   49   0.521  -0.467  -0.265
    1UNL    H15   50   0.390  -0.278  -0.341
    1UNL    H16   51   0.298  -0.115  -0.192
    1UNL    H17   52   0.174   0.156  -0.185
    1UNL    H18   53  -0.007   0.006  -0.118
    1UNL    H19   54  -0.109   0.136  -0.179
    1UNL    H20   55   0.032  -0.097   0.085
    1UNL    H21   56  -0.313  -0.003  -0.036
    1UNL    H22   57  -0.335  -0.171  -0.222
    1UNL    H23   58  -0.356  -0.315  -0.095
    1UNL    H24   59  -0.568  -0.242  -0.074
    1UNL    H25   60  -0.439  -0.187   0.126
    1UNL    H26   61  -0.274   0.029   0.181
    1UNL    H27   62  -0.300  -0.254   0.302
    1UNL    H28   63  -0.146  -0.376   0.125
    1UNL    H29   64  -0.093  -0.117   0.305
    1UNL    H30   65   0.083  -0.247   0.217
   0.00000   0.00000   0.00000   0.00000   0.00000   0.00000   0.00000   0.00000   0.00000
Generated with MDTraj, t= 78.0
 65
    1UNL     C1    1   0.106   0.535  -0.248
    1UNL     O1    2   0.083   0.396  -0.260
    1UNL     C2    3   0.063   0.348  -0.127
    1UNL     C3    4  -0.089   0.372  -0.090
    1UNL     C4    5  -0.110   0.296   0.046
    1UNL     C5    6  -0.255   0.297   0.097
    1UNL     O2    7  -0.018   0.369   0.138
    1UNL     C6    8   0.117   0.333   0.094
    1UNL     O3    9   0.137   0.413  -0.027
    1UNL     C7   10   0.113   0.187   0.046
    1UNL     C8   11   0.199   0.074   0.108
    1UNL     O4   12   0.232  -0.022   0.008
    1UNL     C9   13   0.281  -0.140   0.066
    1UNL     O5   14   0.268  -0.164   0.186
    1UNL    C10   15   0.344  -0.234  -0.025
    1UNL    C11   16   0.405  -0.350   0.030
    1UNL    C12   17   0.485  -0.424  -0.052
    1UNL    C13   18   0.503  -0.391  -0.189
    1UNL    C14   19   0.432  -0.287  -0.239
    1UNL    C15   20   0.359  -0.209  -0.157
    1UNL    C16   21   0.112   0.207  -0.111
    1UNL    C17   22  -0.002   0.105  -0.117
    1UNL    C18   23  -0.041   0.151   0.030
    1UNL     O6   24  -0.091   0.058   0.129
    1UNL    C19   25  -0.083  -0.078   0.088
    1UNL     O7   26  -0.166  -0.113  -0.026
    1UNL    C20   27  -0.310  -0.095  -0.001
    1UNL    C21   28  -0.390  -0.168  -0.106
    1UNL     O8   29  -0.532  -0.143  -0.104
    1UNL    C22   30  -0.343  -0.141   0.142
    1UNL     O9   31  -0.341  -0.030   0.237
    1UNL    C23   32  -0.247  -0.249   0.193
    1UNL    O10   33  -0.253  -0.368   0.117
    1UNL    C24   34  -0.100  -0.184   0.196
    1UNL    O11   35  -0.007  -0.292   0.203
    1UNL     H1   36   0.024   0.581  -0.199
    1UNL     H2   37   0.115   0.587  -0.346
    1UNL     H3   38   0.196   0.551  -0.200
    1UNL     H4   39  -0.102   0.489  -0.085
    1UNL     H5   40  -0.159   0.330  -0.158
    1UNL     H6   41  -0.279   0.223   0.182
    1UNL     H7   42  -0.322   0.260   0.015
    1UNL     H8   43  -0.282   0.401   0.138
    1UNL     H9   44   0.198   0.365   0.162
    1UNL    H10   45   0.291   0.115   0.149
    1UNL    H11   46   0.143   0.028   0.182
    1UNL    H12   47   0.402  -0.370   0.136
    1UNL    H13   48   0.547  -0.504  -0.020
    1UNL    H14   49   0.546  -0.463  -0.260
    1UNL    H15   50   0.447  -0.265  -0.349
    1UNL    H16   51   0.291  -0.137  -0.205
    1UNL    H17   52   0.212   0.174  -0.158
    1UNL    H18   53   0.037   0.010  -0.133
    1UNL    H19   54  -0.081   0.127  -0.184
    1UNL    H20   55   0.024  -0.094   0.053
    1UNL    H21   56  -0.329   0.017   0.001
    1UNL    H22   57  -0.360  -0.142  -0.211
    1UNL    H23   58  -0.381  -0.284  -0.092
    1UNL    H24   59  -0.556  -0.153  -0.008
    1UNL    H25   60  -0.447  -0.176   0.149
    1UNL    H26   61  -0.254   0.009   0.221
    1UNL    H27   62  -0.277  -0.272   0.297
    1UNL    H28   63  -0.174  -0.415   0.145
    1UNL    H29   64  -0.087  -0.138   0.292
    1UNL    H30   65   0.084  -0.248   0.201
   0.00000   0.00000   0.00000   0.00000   0.00000   0.00000   0.00000   0.00000   0.00000
Generated with MDTraj, t= 79.0
 65
    1UNL     C1    1   0.128   0.533  -0.246
    1UNL     O1    2   0.096   0.400  -0.252
    1UNL     C2    3   0.063   0.351  -0.127
    1UNL     C3    4  -0.090   0.369  -0.098
    1UNL     C4    5  -0.117   0.290   0.034
    1UNL     C5    6  -0.269   0.277   0.071
    1UNL     O2    7  -0.046   0.347   0.143
    1UNL     C6    8   0.096   0.331   0.098
    1UNL     O3    9   0.127   0.414  -0.011
    1UNL     C7   10   0.100   0.182   0.036
    1UNL     C8   11   0.198   0.076   0.088
    1UNL     O4   12   0.241  -0.020  -0.009
    1UNL     C9   13   0.282  -0.132   0.058
    1UNL     O5   14   0.247  -0.155   0.171
    1UNL    C10   15   0.363  -0.231  -0.016
    1UNL    C11   16   0.405  -0.351   0.042
    1UNL    C12   17   0.472  -0.433  -0.038
    1UNL    C13   18   0.498  -0.405  -0.176
    1UNL    C14   19   0.459  -0.287  -0.228
    1UNL    C15   20   0.388  -0.201  -0.153
    1UNL    C16   21   0.105   0.205  -0.121
    1UNL    C17   22  -0.018   0.105  -0.128
    1UNL    C18   23  -0.051   0.144   0.021
    1UNL     O6   24  -0.097   0.051   0.124
    1UNL    C19   25  -0.075  -0.083   0.083
    1UNL     O7   26  -0.168  -0.116  -0.024
    1UNL    C20   27  -0.309  -0.093   0.022
    1UNL    C21   28  -0.406  -0.161  -0.072
    1UNL     O8   29  -0.527  -0.093  -0.094
    1UNL    C22   30  -0.337  -0.144   0.170
    1UNL     O9   31  -0.328  -0.033   0.264
    1UNL    C23   32  -0.235  -0.257   0.204
    1UNL    O10   33  -0.248  -0.352   0.096
    1UNL    C24   34  -0.084  -0.190   0.196
    1UNL    O11   35  -0.000  -0.296   0.162
    1UNL     H1   36   0.036   0.584  -0.265
    1UNL     H2   37   0.205   0.569  -0.321
    1UNL     H3   38   0.169   0.555  -0.153
    1UNL     H4   39  -0.117   0.481  -0.065
    1UNL     H5   40  -0.152   0.335  -0.181
    1UNL     H6   41  -0.280   0.237   0.176
    1UNL     H7   42  -0.327   0.202   0.009
    1UNL     H8   43  -0.320   0.381   0.083
    1UNL     H9   44   0.166   0.335   0.184
    1UNL    H10   45   0.286   0.139   0.111
    1UNL    H11   46   0.157   0.034   0.177
    1UNL    H12   47   0.385  -0.367   0.147
    1UNL    H13   48   0.511  -0.531  -0.009
    1UNL    H14   49   0.560  -0.464  -0.241
    1UNL    H15   50   0.447  -0.272  -0.337
    1UNL    H16   51   0.341  -0.112  -0.185
    1UNL    H17   52   0.201   0.170  -0.174
    1UNL    H18   53   0.013   0.004  -0.151
    1UNL    H19   54  -0.088   0.126  -0.200
    1UNL    H20   55   0.029  -0.086   0.035
    1UNL    H21   56  -0.337   0.018   0.016
    1UNL    H22   57  -0.361  -0.179  -0.172
    1UNL    H23   58  -0.438  -0.266  -0.032
    1UNL    H24   59  -0.556  -0.056  -0.007
    1UNL    H25   60  -0.439  -0.183   0.176
    1UNL    H26   61  -0.241   0.006   0.232
    1UNL    H27   62  -0.258  -0.308   0.300
    1UNL    H28   63  -0.166  -0.332   0.042
    1UNL    H29   64  -0.053  -0.140   0.289
    1UNL    H30   65   0.092  -0.273   0.157
   0.00000   0.00000   0.00000   0.00000   0.00000   0.00000   0.00000   0.00000   0.00000
Generated with MDTraj, t= 80.0
 65
    1UNL     C1    1   0.119   0.550  -0.224
    1UNL     O1    2   0.093   0.419  -0.246
    1UNL     C2    3   0.057   0.359  -0.126
    1UNL     C3    4  -0.097   0.371  -0.104
    1UNL     C4    5  -0.123   0.284   0.021
    1UNL     C5    6  -0.265   0.276   0.066
    1UNL     O2    7  -0.044   0.342   0.133
    1UNL     C6    8   0.086   0.330   0.093
    1UNL     O3    9   0.124   0.420  -0.014
    1UNL     C7   10   0.100   0.181   0.033
    1UNL     C8   11   0.198   0.077   0.091
    1UNL     O4   12   0.257  -0.010  -0.001
    1UNL     C9   13   0.295  -0.127   0.059
    1UNL     O5   14   0.265  -0.153   0.173
    1UNL    C10   15   0.356  -0.228  -0.027
    1UNL    C11   16   0.389  -0.351   0.030
    1UNL    C12   17   0.455  -0.453  -0.035
    1UNL    C13   18   0.507  -0.418  -0.158
    1UNL    C14   19   0.475  -0.293  -0.215
    1UNL    C15   20   0.405  -0.195  -0.153
    1UNL    C16   21   0.103   0.207  -0.126
    1UNL    C17   22  -0.015   0.109  -0.137
    1UNL    C18   23  -0.052   0.141   0.010
    1UNL     O6   24  -0.085   0.035   0.104
    1UNL    C19   25  -0.080  -0.107   0.066
    1UNL     O7   26  -0.177  -0.137  -0.030
    1UNL    C20   27  -0.315  -0.097   0.012
    1UNL    C21   28  -0.431  -0.125  -0.087
    1UNL     O8   29  -0.549  -0.055  -0.051
    1UNL    C22   30  -0.335  -0.152   0.155
    1UNL     O9   31  -0.322  -0.035   0.242
    1UNL    C23   32  -0.227  -0.256   0.198
    1UNL    O10   33  -0.237  -0.376   0.124
    1UNL    C24   34  -0.085  -0.197   0.193
    1UNL    O11   35   0.013  -0.299   0.196
    1UNL     H1   36   0.041   0.588  -0.160
    1UNL     H2   37   0.110   0.612  -0.322
    1UNL     H3   38   0.219   0.561  -0.188
    1UNL     H4   39  -0.121   0.476  -0.086
    1UNL     H5   40  -0.159   0.320  -0.194
    1UNL     H6   41  -0.287   0.220   0.161
    1UNL     H7   42  -0.314   0.208  -0.014
    1UNL     H8   43  -0.307   0.383   0.083
    1UNL     H9   44   0.156   0.337   0.179
    1UNL    H10   45   0.279   0.138   0.141
    1UNL    H11   46   0.134   0.024   0.162
    1UNL    H12   47   0.361  -0.370   0.134
    1UNL    H13   48   0.499  -0.541   0.013
    1UNL    H14   49   0.577  -0.486  -0.208
    1UNL    H15   50   0.496  -0.274  -0.315
    1UNL    H16   51   0.378  -0.096  -0.195
    1UNL    H17   52   0.198   0.172  -0.178
    1UNL    H18   53   0.004   0.002  -0.142
    1UNL    H19   54  -0.077   0.133  -0.214
    1UNL    H20   55   0.020  -0.133   0.015
    1UNL    H21   56  -0.311   0.018   0.021
    1UNL    H22   57  -0.405  -0.109  -0.189
    1UNL    H23   58  -0.450  -0.239  -0.078
    1UNL    H24   59  -0.585  -0.075   0.038
    1UNL    H25   60  -0.430  -0.202   0.177
    1UNL    H26   61  -0.236   0.009   0.230
    1UNL    H27   62  -0.246  -0.294   0.301
    1UNL    H28   63  -0.202  -0.358   0.036
    1UNL    H29   64  -0.068  -0.127   0.278
    1UNL    H30   65   0.100  -0.244   0.188
   0.00000   0.00000   0.00000   0.00000   0.00000   0.00000   0.00000   0.00000   0.00000
Generated with MDTraj, t= 81.0
 65
    1UNL     C1    1   0.114   0.561  -0.227
    1UNL     O1    2   0.088   0.424  -0.250
    1UNL     C2    3   0.052   0.363  -0.129
    1UNL     C3    4  -0.107   0.366  -0.099
    1UNL     C4    5  -0.122   0.276   0.028
    1UNL     C5    6  -0.267   0.259   0.058
    1UNL     O2    7  -0.047   0.336   0.129
    1UNL     C6    8   0.088   0.322   0.089
    1UNL     O3    9   0.121   0.417  -0.015
    1UNL     C7   10   0.108   0.184   0.021
    1UNL     C8   11   0.213   0.084   0.077
    1UNL     O4   12   0.238  -0.027  -0.002
    1UNL     C9   13   0.288  -0.137   0.065
    1UNL     O5   14   0.277  -0.157   0.184
    1UNL    C10   15   0.361  -0.229  -0.017
    1UNL    C11   16   0.369  -0.361   0.030
    1UNL    C12   17   0.444  -0.455  -0.043
    1UNL    C13   18   0.498  -0.418  -0.165
    1UNL    C14   19   0.492  -0.287  -0.212
    1UNL    C15   20   0.418  -0.196  -0.137
    1UNL    C16   21   0.104   0.220  -0.134
    1UNL    C17   22  -0.002   0.108  -0.149
    1UNL    C18   23  -0.043   0.139   0.005
    1UNL     O6   24  -0.079   0.036   0.105
    1UNL    C19   25  -0.071  -0.097   0.062
    1UNL     O7   26  -0.174  -0.132  -0.029
    1UNL    C20   27  -0.309  -0.093   0.022
    1UNL    C21   28  -0.424  -0.122  -0.078
    1UNL     O8   29  -0.539  -0.050  -0.040
    1UNL    C22   30  -0.332  -0.151   0.157
    1UNL     O9   31  -0.373  -0.051   0.252
    1UNL    C23   32  -0.225  -0.251   0.197
    1UNL    O10   33  -0.227  -0.363   0.109
    1UNL    C24   34  -0.083  -0.189   0.195
    1UNL    O11   35   0.016  -0.291   0.201
    1UNL     H1   36   0.017   0.605  -0.198
    1UNL     H2   37   0.153   0.622  -0.318
    1UNL     H3   38   0.190   0.568  -0.148
    1UNL     H4   39  -0.144   0.462  -0.074
    1UNL     H5   40  -0.158   0.318  -0.193
    1UNL     H6   41  -0.273   0.178   0.138
    1UNL     H7   42  -0.332   0.213  -0.027
    1UNL     H8   43  -0.298   0.352   0.117
    1UNL     H9   44   0.159   0.333   0.173
    1UNL    H10   45   0.314   0.135   0.094
    1UNL    H11   46   0.167   0.045   0.171
    1UNL    H12   47   0.358  -0.380   0.135
    1UNL    H13   48   0.457  -0.548   0.004
    1UNL    H14   49   0.539  -0.495  -0.225
    1UNL    H15   50   0.543  -0.267  -0.316
    1UNL    H16   51   0.404  -0.099  -0.175
    1UNL    H17   52   0.206   0.198  -0.178
    1UNL    H18   53   0.028   0.008  -0.157
    1UNL    H19   54  -0.090   0.127  -0.206
    1UNL    H20   55   0.025  -0.131   0.007
    1UNL    H21   56  -0.313   0.020   0.021
    1UNL    H22   57  -0.390  -0.083  -0.168
    1UNL    H23   58  -0.438  -0.233  -0.097
    1UNL    H24   59  -0.554  -0.036   0.056
    1UNL    H25   60  -0.420  -0.213   0.141
    1UNL    H26   61  -0.301  -0.000   0.294
    1UNL    H27   62  -0.255  -0.291   0.297
    1UNL    H28   63  -0.198  -0.332   0.018
    1UNL    H29   64  -0.072  -0.124   0.287
    1UNL    H30   65   0.106  -0.258   0.201
   0.00000   0.00000   0.00000   0.00000   0.00000   0.00000   0.00000   0.00000   0.00000
Generated with MDTraj, t= 82.0
 65
    1UNL     C1    1   0.091   0.549  -0.246
    1UNL     O1    2   0.090   0.408  -0.260
    1UNL     C2    3   0.062   0.357  -0.132
    1UNL     C3    4  -0.088   0.374  -0.097
    1UNL     C4    5  -0.121   0.292   0.033
    1UNL     C5    6  -0.266   0.286   0.071
    1UNL     O2    7  -0.037   0.352   0.134
    1UNL     C6    8   0.100   0.329   0.087
    1UNL     O3    9   0.131   0.418  -0.022
    1UNL     C7   10   0.097   0.180   0.035
    1UNL     C8   11   0.204   0.081   0.083
    1UNL     O4   12   0.233  -0.020  -0.005
    1UNL     C9   13   0.282  -0.127   0.060
    1UNL     O5   14   0.276  -0.156   0.177
    1UNL    C10   15   0.356  -0.230  -0.020
    1UNL    C11   16   0.347  -0.358   0.028
    1UNL    C12   17   0.421  -0.451  -0.047
    1UNL    C13   18   0.493  -0.418  -0.159
    1UNL    C14   19   0.494  -0.289  -0.214
    1UNL    C15   20   0.418  -0.197  -0.139
    1UNL    C16   21   0.108   0.202  -0.123
    1UNL    C17   22  -0.018   0.101  -0.129
    1UNL    C18   23  -0.051   0.151   0.016
    1UNL     O6   24  -0.106   0.049   0.112
    1UNL    C19   25  -0.080  -0.085   0.078
    1UNL     O7   26  -0.164  -0.127  -0.024
    1UNL    C20   27  -0.302  -0.100   0.026
    1UNL    C21   28  -0.402  -0.106  -0.090
    1UNL     O8   29  -0.525  -0.044  -0.065
    1UNL    C22   30  -0.339  -0.183   0.157
    1UNL     O9   31  -0.361  -0.086   0.259
    1UNL    C23   32  -0.217  -0.273   0.193
    1UNL    O10   33  -0.212  -0.374   0.100
    1UNL    C24   34  -0.087  -0.191   0.202
    1UNL    O11   35   0.025  -0.278   0.203
    1UNL     H1   36  -0.011   0.585  -0.226
    1UNL     H2   37   0.127   0.597  -0.342
    1UNL     H3   38   0.163   0.576  -0.166
    1UNL     H4   39  -0.103   0.480  -0.079
    1UNL     H5   40  -0.137   0.339  -0.176
    1UNL     H6   41  -0.294   0.207   0.149
    1UNL     H7   42  -0.320   0.249  -0.024
    1UNL     H8   43  -0.287   0.388   0.116
    1UNL     H9   44   0.169   0.334   0.173
    1UNL    H10   45   0.308   0.130   0.091
    1UNL    H11   46   0.178   0.032   0.182
    1UNL    H12   47   0.304  -0.381   0.128
    1UNL    H13   48   0.429  -0.555   0.000
    1UNL    H14   49   0.528  -0.503  -0.223
    1UNL    H15   50   0.531  -0.265  -0.305
    1UNL    H16   51   0.394  -0.096  -0.180
    1UNL    H17   52   0.200   0.154  -0.173
    1UNL    H18   53   0.000   0.003  -0.149
    1UNL    H19   54  -0.096   0.127  -0.199
    1UNL    H20   55   0.025  -0.094   0.030
    1UNL    H21   56  -0.308   0.009   0.048
    1UNL    H22   57  -0.359  -0.068  -0.177
    1UNL    H23   58  -0.412  -0.213  -0.116
    1UNL    H24   59  -0.550  -0.073   0.025
    1UNL    H25   60  -0.429  -0.242   0.144
    1UNL    H26   61  -0.284  -0.023   0.256
    1UNL    H27   62  -0.238  -0.317   0.293
    1UNL    H28   63  -0.173  -0.339   0.018
    1UNL    H29   64  -0.091  -0.122   0.292
    1UNL    H30   65   0.112  -0.229   0.199
   0.00000   0.00000   0.00000   0.00000   0.00000   0.00000   0.00000   0.00000   0.00000
Generated with MDTraj, t= 83.0
 65
    1UNL     C1    1   0.087   0.529  -0.276
    1UNL     O1    2   0.078   0.395  -0.272
    1UNL     C2    3   0.050   0.350  -0.132
    1UNL     C3    4  -0.100   0.369  -0.087
    1UNL     C4    5  -0.116   0.298   0.045
    1UNL     C5    6  -0.257   0.295   0.108
    1UNL     O2    7  -0.027   0.361   0.138
    1UNL     C6    8   0.109   0.333   0.089
    1UNL     O3    9   0.121   0.418  -0.028
    1UNL     C7   10   0.108   0.185   0.039
    1UNL     C8   11   0.208   0.079   0.096
    1UNL     O4   12   0.248  -0.013   0.002
    1UNL     C9   13   0.294  -0.122   0.067
    1UNL     O5   14   0.277  -0.148   0.185
    1UNL    C10   15   0.348  -0.233  -0.018
    1UNL    C11   16   0.347  -0.361   0.021
    1UNL    C12   17   0.405  -0.464  -0.056
    1UNL    C13   18   0.470  -0.428  -0.172
    1UNL    C14   19   0.468  -0.291  -0.208
    1UNL    C15   20   0.406  -0.189  -0.133
    1UNL    C16   21   0.094   0.201  -0.120
    1UNL    C17   22  -0.020   0.101  -0.116
    1UNL    C18   23  -0.051   0.153   0.032
    1UNL     O6   24  -0.092   0.053   0.133
    1UNL    C19   25  -0.075  -0.076   0.085
    1UNL     O7   26  -0.156  -0.118  -0.022
    1UNL    C20   27  -0.296  -0.094   0.009
    1UNL    C21   28  -0.385  -0.115  -0.108
    1UNL     O8   29  -0.515  -0.062  -0.085
    1UNL    C22   30  -0.337  -0.180   0.138
    1UNL     O9   31  -0.373  -0.088   0.243
    1UNL    C23   32  -0.217  -0.274   0.182
    1UNL    O10   33  -0.198  -0.372   0.078
    1UNL    C24   34  -0.086  -0.184   0.208
    1UNL    O11   35   0.028  -0.272   0.221
    1UNL     H1   36  -0.013   0.574  -0.280
    1UNL     H2   37   0.142   0.546  -0.370
    1UNL     H3   38   0.148   0.563  -0.190
    1UNL     H4   39  -0.127   0.467  -0.055
    1UNL     H5   40  -0.167   0.336  -0.164
    1UNL     H6   41  -0.269   0.255   0.215
    1UNL     H7   42  -0.310   0.218   0.043
    1UNL     H8   43  -0.294   0.402   0.113
    1UNL     H9   44   0.183   0.344   0.170
    1UNL    H10   45   0.306   0.127   0.132
    1UNL    H11   46   0.163   0.018   0.181
    1UNL    H12   47   0.297  -0.384   0.109
    1UNL    H13   48   0.423  -0.557  -0.015
    1UNL    H14   49   0.533  -0.494  -0.221
    1UNL    H15   50   0.493  -0.259  -0.311
    1UNL    H16   51   0.398  -0.090  -0.166
    1UNL    H17   52   0.187   0.178  -0.181
    1UNL    H18   53   0.003   0.001  -0.134
    1UNL    H19   54  -0.098   0.125  -0.182
    1UNL    H20   55   0.031  -0.093   0.043
    1UNL    H21   56  -0.310   0.011   0.045
    1UNL    H22   57  -0.351  -0.079  -0.196
    1UNL    H23   58  -0.399  -0.221  -0.128
    1UNL    H24   59  -0.532  -0.061   0.013
    1UNL    H25   60  -0.426  -0.242   0.121
    1UNL    H26   61  -0.300  -0.021   0.249
    1UNL    H27   62  -0.233  -0.336   0.272
    1UNL    H28   63  -0.174  -0.327  -0.006
    1UNL    H29   64  -0.086  -0.125   0.304
    1UNL    H30   65   0.107  -0.217   0.208
   0.00000   0.00000   0.00000   0.00000   0.00000   0.00000   0.00000   0.00000   0.00000
Generated with MDTraj, t= 84.0
 65
    1UNL     C1    1   0.069   0.538  -0.272
    1UNL     O1    2   0.062   0.399  -0.269
    1UNL     C2    3   0.046   0.358  -0.133
    1UNL     C3    4  -0.102   0.357  -0.084
    1UNL     C4    5  -0.112   0.283   0.054
    1UNL     C5    6  -0.246   0.276   0.115
    1UNL     O2    7  -0.019   0.359   0.141
    1UNL     C6    8   0.110   0.342   0.088
    1UNL     O3    9   0.120   0.427  -0.033
    1UNL     C7   10   0.115   0.192   0.030
    1UNL     C8   11   0.216   0.088   0.085
    1UNL     O4   12   0.251  -0.013  -0.004
    1UNL     C9   13   0.291  -0.124   0.072
    1UNL     O5   14   0.272  -0.130   0.193
    1UNL    C10   15   0.341  -0.230  -0.008
    1UNL    C11   16   0.344  -0.360   0.031
    1UNL    C12   17   0.391  -0.457  -0.056
    1UNL    C13   18   0.430  -0.425  -0.187
    1UNL    C14   19   0.436  -0.292  -0.216
    1UNL    C15   20   0.396  -0.193  -0.128
    1UNL    C16   21   0.092   0.210  -0.125
    1UNL    C17   22  -0.016   0.091  -0.114
    1UNL    C18   23  -0.038   0.139   0.040
    1UNL     O6   24  -0.056   0.047   0.145
    1UNL    C19   25  -0.061  -0.087   0.104
    1UNL     O7   26  -0.139  -0.111  -0.012
    1UNL    C20   27  -0.284  -0.091   0.002
    1UNL    C21   28  -0.360  -0.118  -0.121
    1UNL     O8   29  -0.499  -0.090  -0.112
    1UNL    C22   30  -0.333  -0.166   0.127
    1UNL     O9   31  -0.388  -0.073   0.220
    1UNL    C23   32  -0.224  -0.267   0.183
    1UNL    O10   33  -0.206  -0.364   0.084
    1UNL    C24   34  -0.088  -0.195   0.217
    1UNL    O11   35   0.023  -0.278   0.232
    1UNL     H1   36   0.004   0.580  -0.196
    1UNL     H2   37   0.050   0.572  -0.371
    1UNL     H3   38   0.173   0.561  -0.242
    1UNL     H4   39  -0.143   0.448  -0.063
    1UNL     H5   40  -0.170   0.300  -0.162
    1UNL     H6   41  -0.244   0.234   0.219
    1UNL     H7   42  -0.318   0.211   0.056
    1UNL     H8   43  -0.270   0.387   0.133
    1UNL     H9   44   0.197   0.367   0.149
    1UNL    H10   45   0.317   0.133   0.105
    1UNL    H11   46   0.179   0.039   0.179
    1UNL    H12   47   0.321  -0.379   0.140
    1UNL    H13   48   0.394  -0.560  -0.008
    1UNL    H14   49   0.482  -0.504  -0.250
    1UNL    H15   50   0.465  -0.257  -0.319
    1UNL    H16   51   0.388  -0.087  -0.159
    1UNL    H17   52   0.183   0.191  -0.190
    1UNL    H18   53   0.030  -0.005  -0.135
    1UNL    H19   54  -0.098   0.107  -0.172
    1UNL    H20   55   0.042  -0.118   0.061
    1UNL    H21   56  -0.297   0.014   0.039
    1UNL    H22   57  -0.328  -0.067  -0.202
    1UNL    H23   58  -0.356  -0.218  -0.161
    1UNL    H24   59  -0.542  -0.130  -0.034
    1UNL    H25   60  -0.416  -0.232   0.096
    1UNL    H26   61  -0.312  -0.030   0.268
    1UNL    H27   62  -0.267  -0.322   0.268
    1UNL    H28   63  -0.171  -0.319   0.002
    1UNL    H29   64  -0.102  -0.137   0.311
    1UNL    H30   65   0.109  -0.235   0.216
   0.00000   0.00000   0.00000   0.00000   0.00000   0.00000   0.00000   0.00000   0.00000
Generated with MDTraj, t= 85.0
 65
    1UNL     C1    1   0.061   0.557  -0.257
    1UNL     O1    2   0.052   0.412  -0.258
    1UNL     C2    3   0.040   0.362  -0.127
    1UNL     C3    4  -0.111   0.361  -0.087
    1UNL     C4    5  -0.112   0.285   0.057
    1UNL     C5    6  -0.251   0.268   0.112
    1UNL     O2    7  -0.021   0.359   0.145
    1UNL     C6    8   0.107   0.350   0.089
    1UNL     O3    9   0.115   0.434  -0.030
    1UNL     C7   10   0.119   0.201   0.040
    1UNL     C8   11   0.227   0.098   0.104
    1UNL     O4   12   0.272   0.008   0.001
    1UNL     C9   13   0.278  -0.119   0.057
    1UNL     O5   14   0.257  -0.135   0.176
    1UNL    C10   15   0.319  -0.238  -0.021
    1UNL    C11   16   0.320  -0.363   0.035
    1UNL    C12   17   0.373  -0.460  -0.041
    1UNL    C13   18   0.423  -0.438  -0.176
    1UNL    C14   19   0.409  -0.313  -0.231
    1UNL    C15   20   0.362  -0.216  -0.149
    1UNL    C16   21   0.097   0.216  -0.117
    1UNL    C17   22  -0.011   0.100  -0.113
    1UNL    C18   23  -0.032   0.147   0.036
    1UNL     O6   24  -0.075   0.052   0.128
    1UNL    C19   25  -0.055  -0.093   0.105
    1UNL     O7   26  -0.121  -0.139  -0.012
    1UNL    C20   27  -0.265  -0.113  -0.006
    1UNL    C21   28  -0.344  -0.142  -0.133
    1UNL     O8   29  -0.478  -0.094  -0.135
    1UNL    C22   30  -0.321  -0.169   0.123
    1UNL     O9   31  -0.354  -0.057   0.199
    1UNL    C23   32  -0.217  -0.265   0.194
    1UNL    O10   33  -0.190  -0.371   0.110
    1UNL    C24   34  -0.083  -0.190   0.226
    1UNL    O11   35   0.026  -0.274   0.252
    1UNL     H1   36  -0.028   0.601  -0.215
    1UNL     H2   37   0.087   0.596  -0.349
    1UNL     H3   38   0.137   0.581  -0.180
    1UNL     H4   39  -0.154   0.463  -0.081
    1UNL     H5   40  -0.180   0.305  -0.159
    1UNL     H6   41  -0.255   0.194   0.194
    1UNL     H7   42  -0.322   0.225   0.035
    1UNL     H8   43  -0.281   0.367   0.165
    1UNL     H9   44   0.173   0.389   0.167
    1UNL    H10   45   0.314   0.159   0.126
    1UNL    H11   46   0.197   0.048   0.200
    1UNL    H12   47   0.296  -0.367   0.136
    1UNL    H13   48   0.390  -0.557  -0.002
    1UNL    H14   49   0.434  -0.525  -0.232
    1UNL    H15   50   0.440  -0.296  -0.326
    1UNL    H16   51   0.349  -0.118  -0.185
    1UNL    H17   52   0.186   0.202  -0.185
    1UNL    H18   53   0.032   0.004  -0.130
    1UNL    H19   54  -0.089   0.117  -0.177
    1UNL    H20   55   0.055  -0.111   0.074
    1UNL    H21   56  -0.268  -0.003   0.008
    1UNL    H22   57  -0.298  -0.104  -0.215
    1UNL    H23   58  -0.343  -0.246  -0.161
    1UNL    H24   59  -0.477   0.003  -0.125
    1UNL    H25   60  -0.412  -0.226   0.092
    1UNL    H26   61  -0.273  -0.004   0.219
    1UNL    H27   62  -0.264  -0.300   0.287
    1UNL    H28   63  -0.149  -0.334   0.032
    1UNL    H29   64  -0.104  -0.125   0.311
    1UNL    H30   65   0.109  -0.219   0.234
   0.00000   0.00000   0.00000   0.00000   0.00000   0.00000   0.00000   0.00000   0.00000
Generated with MDTraj, t= 86.0
 65
    1UNL     C1    1   0.058   0.559  -0.239
    1UNL     O1    2   0.069   0.423  -0.249
    1UNL     C2    3   0.046   0.364  -0.116
    1UNL     C3    4  -0.102   0.366  -0.077
    1UNL     C4    5  -0.118   0.283   0.051
    1UNL     C5    6  -0.264   0.268   0.090
    1UNL     O2    7  -0.041   0.348   0.159
    1UNL     C6    8   0.094   0.344   0.105
    1UNL     O3    9   0.115   0.431  -0.008
    1UNL     C7   10   0.106   0.197   0.038
    1UNL     C8   11   0.229   0.105   0.073
    1UNL     O4   12   0.246  -0.002  -0.022
    1UNL     C9   13   0.274  -0.113   0.056
    1UNL     O5   14   0.263  -0.121   0.178
    1UNL    C10   15   0.319  -0.229  -0.022
    1UNL    C11   16   0.325  -0.357   0.034
    1UNL    C12   17   0.355  -0.468  -0.035
    1UNL    C13   18   0.377  -0.456  -0.170
    1UNL    C14   19   0.376  -0.329  -0.228
    1UNL    C15   20   0.342  -0.215  -0.161
    1UNL    C16   21   0.096   0.216  -0.112
    1UNL    C17   22  -0.016   0.110  -0.117
    1UNL    C18   23  -0.042   0.145   0.031
    1UNL     O6   24  -0.082   0.054   0.139
    1UNL    C19   25  -0.042  -0.081   0.104
    1UNL     O7   26  -0.101  -0.133  -0.013
    1UNL    C20   27  -0.243  -0.114  -0.009
    1UNL    C21   28  -0.310  -0.181  -0.134
    1UNL     O8   29  -0.443  -0.139  -0.156
    1UNL    C22   30  -0.309  -0.149   0.132
    1UNL     O9   31  -0.330  -0.030   0.201
    1UNL    C23   32  -0.213  -0.251   0.200
    1UNL    O10   33  -0.201  -0.365   0.110
    1UNL    C24   34  -0.071  -0.180   0.226
    1UNL    O11   35   0.032  -0.276   0.238
    1UNL     H1   36  -0.045   0.593  -0.234
    1UNL     H2   37   0.110   0.595  -0.319
    1UNL     H3   38   0.102   0.588  -0.141
    1UNL     H4   39  -0.146   0.479  -0.057
    1UNL     H5   40  -0.163   0.327  -0.157
    1UNL     H6   41  -0.266   0.219   0.190
    1UNL     H7   42  -0.321   0.202   0.019
    1UNL     H8   43  -0.313   0.370   0.110
    1UNL     H9   44   0.157   0.364   0.193
    1UNL    H10   45   0.318   0.162   0.087
    1UNL    H11   46   0.203   0.072   0.175
    1UNL    H12   47   0.308  -0.353   0.147
    1UNL    H13   48   0.363  -0.566   0.015
    1UNL    H14   49   0.384  -0.544  -0.237
    1UNL    H15   50   0.378  -0.320  -0.344
    1UNL    H16   51   0.355  -0.114  -0.202
    1UNL    H17   52   0.193   0.203  -0.171
    1UNL    H18   53   0.019   0.014  -0.131
    1UNL    H19   54  -0.084   0.134  -0.194
    1UNL    H20   55   0.070  -0.087   0.082
    1UNL    H21   56  -0.259  -0.005  -0.026
    1UNL    H22   57  -0.246  -0.176  -0.215
    1UNL    H23   58  -0.312  -0.290  -0.125
    1UNL    H24   59  -0.444  -0.042  -0.170
    1UNL    H25   60  -0.409  -0.194   0.111
    1UNL    H26   61  -0.253   0.030   0.202
    1UNL    H27   62  -0.248  -0.283   0.299
    1UNL    H28   63  -0.111  -0.364   0.070
    1UNL    H29   64  -0.069  -0.123   0.317
    1UNL    H30   65   0.118  -0.239   0.220
   0.00000   0.00000   0.00000   0.00000   0.00000   0.00000   0.00000   0.00000   0.00000
Generated with MDTraj, t= 87.0
 65
    1UNL     C1    1   0.067   0.576  -0.221
    1UNL     O1    2   0.063   0.443  -0.246
    1UNL     C2    3   0.036   0.379  -0.123
    1UNL     C3    4  -0.108   0.379  -0.082
    1UNL     C4    5  -0.118   0.300   0.051
    1UNL     C5    6  -0.259   0.286   0.103
    1UNL     O2    7  -0.037   0.366   0.149
    1UNL     C6    8   0.098   0.357   0.102
    1UNL     O3    9   0.113   0.444  -0.012
    1UNL     C7   10   0.115   0.207   0.040
    1UNL     C8   11   0.217   0.108   0.096
    1UNL     O4   12   0.245  -0.002   0.009
    1UNL     C9   13   0.290  -0.121   0.076
    1UNL     O5   14   0.291  -0.143   0.196
    1UNL    C10   15   0.302  -0.236  -0.016
    1UNL    C11   16   0.322  -0.366   0.036
    1UNL    C12   17   0.340  -0.480  -0.043
    1UNL    C13   18   0.353  -0.462  -0.176
    1UNL    C14   19   0.329  -0.333  -0.235
    1UNL    C15   20   0.309  -0.223  -0.156
    1UNL    C16   21   0.105   0.229  -0.113
    1UNL    C17   22  -0.005   0.121  -0.117
    1UNL    C18   23  -0.036   0.159   0.031
    1UNL     O6   24  -0.079   0.059   0.133
    1UNL    C19   25  -0.041  -0.073   0.089
    1UNL     O7   26  -0.104  -0.115  -0.032
    1UNL    C20   27  -0.248  -0.122  -0.025
    1UNL    C21   28  -0.296  -0.229  -0.129
    1UNL     O8   29  -0.430  -0.209  -0.158
    1UNL    C22   30  -0.308  -0.158   0.119
    1UNL     O9   31  -0.323  -0.036   0.184
    1UNL    C23   32  -0.203  -0.244   0.196
    1UNL    O10   33  -0.200  -0.370   0.129
    1UNL    C24   34  -0.064  -0.177   0.210
    1UNL    O11   35   0.042  -0.270   0.224
    1UNL     H1   36  -0.016   0.612  -0.158
    1UNL     H2   37   0.072   0.619  -0.315
    1UNL     H3   38   0.157   0.597  -0.156
    1UNL     H4   39  -0.145   0.480  -0.066
    1UNL     H5   40  -0.171   0.340  -0.163
    1UNL     H6   41  -0.254   0.269   0.214
    1UNL     H7   42  -0.303   0.195   0.051
    1UNL     H8   43  -0.332   0.369   0.081
    1UNL     H9   44   0.177   0.386   0.173
    1UNL    H10   45   0.298   0.162   0.135
    1UNL    H11   46   0.171   0.072   0.188
    1UNL    H12   47   0.322  -0.381   0.137
    1UNL    H13   48   0.350  -0.577  -0.001
    1UNL    H14   49   0.386  -0.540  -0.244
    1UNL    H15   50   0.339  -0.335  -0.339
    1UNL    H16   51   0.288  -0.128  -0.206
    1UNL    H17   52   0.200   0.218  -0.175
    1UNL    H18   53   0.039   0.030  -0.125
    1UNL    H19   54  -0.080   0.146  -0.190
    1UNL    H20   55   0.067  -0.071   0.078
    1UNL    H21   56  -0.290  -0.024  -0.057
    1UNL    H22   57  -0.233  -0.241  -0.211
    1UNL    H23   58  -0.279  -0.326  -0.080
    1UNL    H24   59  -0.449  -0.120  -0.196
    1UNL    H25   60  -0.410  -0.206   0.122
    1UNL    H26   61  -0.239   0.018   0.196
    1UNL    H27   62  -0.248  -0.267   0.294
    1UNL    H28   63  -0.117  -0.418   0.146
    1UNL    H29   64  -0.066  -0.117   0.299
    1UNL    H30   65   0.131  -0.220   0.223
   0.00000   0.00000   0.00000   0.00000   0.00000   0.00000   0.00000   0.00000   0.00000
Generated with MDTraj, t= 88.0
 65
    1UNL     C1    1   0.102   0.577  -0.236
    1UNL     O1    2   0.089   0.436  -0.236
    1UNL     C2    3   0.055   0.387  -0.110
    1UNL     C3    4  -0.094   0.402  -0.067
    1UNL     C4    5  -0.106   0.303   0.064
    1UNL     C5    6  -0.250   0.282   0.114
    1UNL     O2    7  -0.016   0.357   0.159
    1UNL     C6    8   0.123   0.350   0.105
    1UNL     O3    9   0.130   0.446  -0.001
    1UNL     C7   10   0.122   0.206   0.034
    1UNL     C8   11   0.232   0.126   0.087
    1UNL     O4   12   0.242   0.010   0.005
    1UNL     C9   13   0.277  -0.099   0.070
    1UNL     O5   14   0.280  -0.115   0.190
    1UNL    C10   15   0.297  -0.218  -0.013
    1UNL    C11   16   0.326  -0.338   0.052
    1UNL    C12   17   0.330  -0.449  -0.034
    1UNL    C13   18   0.310  -0.438  -0.169
    1UNL    C14   19   0.282  -0.320  -0.235
    1UNL    C15   20   0.273  -0.216  -0.151
    1UNL    C16   21   0.108   0.232  -0.117
    1UNL    C17   22  -0.005   0.130  -0.122
    1UNL    C18   23  -0.033   0.162   0.029
    1UNL     O6   24  -0.082   0.055   0.119
    1UNL    C19   25  -0.048  -0.074   0.084
    1UNL     O7   26  -0.110  -0.127  -0.033
    1UNL    C20   27  -0.250  -0.154  -0.033
    1UNL    C21   28  -0.296  -0.264  -0.132
    1UNL     O8   29  -0.435  -0.281  -0.137
    1UNL    C22   30  -0.310  -0.177   0.106
    1UNL     O9   31  -0.346  -0.054   0.163
    1UNL    C23   32  -0.208  -0.256   0.189
    1UNL    O10   33  -0.186  -0.384   0.131
    1UNL    C24   34  -0.072  -0.175   0.203
    1UNL    O11   35   0.041  -0.261   0.223
    1UNL     H1   36   0.008   0.631  -0.216
    1UNL     H2   37   0.141   0.600  -0.331
    1UNL     H3   38   0.169   0.612  -0.149
    1UNL     H4   39  -0.109   0.497  -0.044
    1UNL     H5   40  -0.170   0.386  -0.147
    1UNL     H6   41  -0.246   0.205   0.198
    1UNL     H7   42  -0.329   0.273   0.031
    1UNL     H8   43  -0.288   0.373   0.164
    1UNL     H9   44   0.204   0.376   0.176
    1UNL    H10   45   0.324   0.178   0.080
    1UNL    H11   46   0.224   0.118   0.194
    1UNL    H12   47   0.348  -0.353   0.161
    1UNL    H13   48   0.336  -0.548   0.013
    1UNL    H14   49   0.322  -0.529  -0.225
    1UNL    H15   50   0.267  -0.312  -0.343
    1UNL    H16   51   0.244  -0.122  -0.189
    1UNL    H17   52   0.199   0.209  -0.179
    1UNL    H18   53   0.025   0.030  -0.128
    1UNL    H19   54  -0.098   0.154  -0.168
    1UNL    H20   55   0.056  -0.067   0.068
    1UNL    H21   56  -0.299  -0.060  -0.073
    1UNL    H22   57  -0.258  -0.239  -0.228
    1UNL    H23   58  -0.243  -0.359  -0.119
    1UNL    H24   59  -0.483  -0.196  -0.152
    1UNL    H25   60  -0.400  -0.242   0.098
    1UNL    H26   61  -0.277   0.013   0.163
    1UNL    H27   62  -0.244  -0.284   0.290
    1UNL    H28   63  -0.124  -0.372   0.058
    1UNL    H29   64  -0.082  -0.115   0.293
    1UNL    H30   65   0.122  -0.206   0.215
   0.00000   0.00000   0.00000   0.00000   0.00000   0.00000   0.00000   0.00000   0.00000
Generated with MDTraj, t= 89.0
 65
    1UNL     C1    1   0.116   0.586  -0.210
    1UNL     O1    2   0.098   0.451  -0.242
    1UNL     C2    3   0.067   0.389  -0.117
    1UNL     C3    4  -0.081   0.398  -0.076
    1UNL     C4    5  -0.111   0.315   0.051
    1UNL     C5    6  -0.256   0.307   0.093
    1UNL     O2    7  -0.032   0.375   0.157
    1UNL     C6    8   0.111   0.354   0.112
    1UNL     O3    9   0.130   0.448   0.002
    1UNL     C7   10   0.116   0.212   0.044
    1UNL     C8   11   0.224   0.123   0.097
    1UNL     O4   12   0.259   0.009   0.012
    1UNL     C9   13   0.278  -0.108   0.066
    1UNL     O5   14   0.278  -0.125   0.185
    1UNL    C10   15   0.290  -0.223  -0.028
    1UNL    C11   16   0.336  -0.338   0.031
    1UNL    C12   17   0.329  -0.459  -0.036
    1UNL    C13   18   0.282  -0.457  -0.168
    1UNL    C14   19   0.245  -0.345  -0.227
    1UNL    C15   20   0.241  -0.220  -0.157
    1UNL    C16   21   0.113   0.241  -0.110
    1UNL    C17   22  -0.005   0.143  -0.117
    1UNL    C18   23  -0.039   0.168   0.033
    1UNL     O6   24  -0.089   0.062   0.124
    1UNL    C19   25  -0.054  -0.067   0.091
    1UNL     O7   26  -0.113  -0.114  -0.035
    1UNL    C20   27  -0.250  -0.157  -0.036
    1UNL    C21   28  -0.283  -0.274  -0.127
    1UNL     O8   29  -0.415  -0.322  -0.131
    1UNL    C22   30  -0.296  -0.189   0.104
    1UNL     O9   31  -0.348  -0.069   0.163
    1UNL    C23   32  -0.192  -0.259   0.182
    1UNL    O10   33  -0.158  -0.383   0.123
    1UNL    C24   34  -0.071  -0.167   0.206
    1UNL    O11   35   0.038  -0.247   0.228
    1UNL     H1   36   0.032   0.630  -0.152
    1UNL     H2   37   0.131   0.640  -0.303
    1UNL     H3   38   0.206   0.598  -0.138
    1UNL     H4   39  -0.100   0.507  -0.056
    1UNL     H5   40  -0.151   0.374  -0.147
    1UNL     H6   41  -0.250   0.279   0.202
    1UNL     H7   42  -0.328   0.249   0.022
    1UNL     H8   43  -0.306   0.405   0.086
    1UNL     H9   44   0.172   0.382   0.201
    1UNL    H10   45   0.308   0.183   0.127
    1UNL    H11   46   0.203   0.086   0.196
    1UNL    H12   47   0.361  -0.342   0.136
    1UNL    H13   48   0.361  -0.554   0.003
    1UNL    H14   49   0.253  -0.550  -0.215
    1UNL    H15   50   0.206  -0.342  -0.326
    1UNL    H16   51   0.216  -0.124  -0.206
    1UNL    H17   52   0.208   0.203  -0.157
    1UNL    H18   53   0.033   0.043  -0.134
    1UNL    H19   54  -0.078   0.161  -0.185
    1UNL    H20   55   0.048  -0.060   0.070
    1UNL    H21   56  -0.306  -0.064  -0.072
    1UNL    H22   57  -0.249  -0.251  -0.229
    1UNL    H23   58  -0.223  -0.361  -0.104
    1UNL    H24   59  -0.474  -0.244  -0.141
    1UNL    H25   60  -0.383  -0.256   0.097
    1UNL    H26   61  -0.281   0.007   0.166
    1UNL    H27   62  -0.226  -0.290   0.283
    1UNL    H28   63  -0.066  -0.369   0.084
    1UNL    H29   64  -0.101  -0.113   0.298
    1UNL    H30   65   0.126  -0.203   0.232
   0.00000   0.00000   0.00000   0.00000   0.00000   0.00000   0.00000   0.00000   0.00000
Generated with MDTraj, t= 90.0
 65
    1UNL     C1    1   0.130   0.586  -0.204
    1UNL     O1    2   0.105   0.456  -0.225
    1UNL     C2    3   0.063   0.391  -0.106
    1UNL     C3    4  -0.088   0.399  -0.086
    1UNL     C4    5  -0.114   0.312   0.042
    1UNL     C5    6  -0.268   0.296   0.074
    1UNL     O2    7  -0.043   0.363   0.154
    1UNL     C6    8   0.090   0.348   0.120
    1UNL     O3    9   0.123   0.446   0.014
    1UNL     C7   10   0.108   0.204   0.043
    1UNL     C8   11   0.215   0.112   0.096
    1UNL     O4   12   0.221   0.001   0.012
    1UNL     C9   13   0.277  -0.110   0.066
    1UNL     O5   14   0.336  -0.110   0.174
    1UNL    C10   15   0.261  -0.236  -0.017
    1UNL    C11   16   0.329  -0.352   0.024
    1UNL    C12   17   0.338  -0.467  -0.048
    1UNL    C13   18   0.273  -0.462  -0.171
    1UNL    C14   19   0.213  -0.350  -0.218
    1UNL    C15   20   0.202  -0.228  -0.142
    1UNL    C16   21   0.110   0.240  -0.108
    1UNL    C17   22  -0.006   0.146  -0.125
    1UNL    C18   23  -0.048   0.170   0.024
    1UNL     O6   24  -0.097   0.072   0.111
    1UNL    C19   25  -0.048  -0.060   0.091
    1UNL     O7   26  -0.098  -0.120  -0.031
    1UNL    C20   27  -0.238  -0.151  -0.036
    1UNL    C21   28  -0.256  -0.275  -0.124
    1UNL     O8   29  -0.392  -0.304  -0.155
    1UNL    C22   30  -0.296  -0.179   0.106
    1UNL     O9   31  -0.335  -0.058   0.173
    1UNL    C23   32  -0.186  -0.252   0.187
    1UNL    O10   33  -0.152  -0.378   0.129
    1UNL    C24   34  -0.058  -0.158   0.212
    1UNL    O11   35   0.053  -0.239   0.241
    1UNL     H1   36   0.037   0.641  -0.189
    1UNL     H2   37   0.176   0.616  -0.300
    1UNL     H3   38   0.197   0.602  -0.113
    1UNL     H4   39  -0.117   0.508  -0.053
    1UNL     H5   40  -0.152   0.380  -0.166
    1UNL     H6   41  -0.284   0.248   0.174
    1UNL     H7   42  -0.315   0.234  -0.009
    1UNL     H8   43  -0.329   0.389   0.070
    1UNL     H9   44   0.151   0.370   0.210
    1UNL    H10   45   0.316   0.153   0.099
    1UNL    H11   46   0.206   0.089   0.203
    1UNL    H12   47   0.384  -0.354   0.114
    1UNL    H13   48   0.386  -0.556  -0.016
    1UNL    H14   49   0.266  -0.546  -0.239
    1UNL    H15   50   0.179  -0.337  -0.323
    1UNL    H16   51   0.165  -0.140  -0.189
    1UNL    H17   52   0.208   0.218  -0.160
    1UNL    H18   53   0.027   0.046  -0.143
    1UNL    H19   54  -0.063   0.175  -0.207
    1UNL    H20   55   0.061  -0.044   0.083
    1UNL    H21   56  -0.281  -0.061  -0.091
    1UNL    H22   57  -0.210  -0.268  -0.228
    1UNL    H23   58  -0.213  -0.362  -0.083
    1UNL    H24   59  -0.436  -0.225  -0.193
    1UNL    H25   60  -0.390  -0.234   0.092
    1UNL    H26   61  -0.258  -0.002   0.169
    1UNL    H27   62  -0.228  -0.282   0.285
    1UNL    H28   63  -0.063  -0.397   0.160
    1UNL    H29   64  -0.085  -0.104   0.307
    1UNL    H30   65   0.141  -0.190   0.232
   0.00000   0.00000   0.00000   0.00000   0.00000   0.00000   0.00000   0.00000   0.00000
Generated with MDTraj, t= 91.0
 65
    1UNL     C1    1   0.124   0.592  -0.198
    1UNL     O1    2   0.098   0.455  -0.221
    1UNL     C2    3   0.064   0.396  -0.102
    1UNL     C3    4  -0.089   0.402  -0.077
    1UNL     C4    5  -0.118   0.306   0.041
    1UNL     C5    6  -0.263   0.292   0.079
    1UNL     O2    7  -0.040   0.360   0.156
    1UNL     C6    8   0.096   0.352   0.113
    1UNL     O3    9   0.131   0.446   0.013
    1UNL     C7   10   0.112   0.208   0.040
    1UNL     C8   11   0.215   0.120   0.087
    1UNL     O4   12   0.235   0.016  -0.003
    1UNL     C9   13   0.278  -0.102   0.061
    1UNL     O5   14   0.286  -0.110   0.183
    1UNL    C10   15   0.286  -0.227  -0.023
    1UNL    C11   16   0.361  -0.339   0.019
    1UNL    C12   17   0.336  -0.458  -0.055
    1UNL    C13   18   0.241  -0.470  -0.151
    1UNL    C14   19   0.175  -0.359  -0.204
    1UNL    C15   20   0.205  -0.243  -0.141
    1UNL    C16   21   0.106   0.247  -0.109
    1UNL    C17   22  -0.009   0.136  -0.124
    1UNL    C18   23  -0.045   0.161   0.020
    1UNL     O6   24  -0.103   0.061   0.099
    1UNL    C19   25  -0.036  -0.067   0.089
    1UNL     O7   26  -0.073  -0.140  -0.029
    1UNL    C20   27  -0.218  -0.161  -0.033
    1UNL    C21   28  -0.257  -0.263  -0.142
    1UNL     O8   29  -0.400  -0.269  -0.170
    1UNL    C22   30  -0.289  -0.194   0.101
    1UNL     O9   31  -0.350  -0.073   0.146
    1UNL    C23   32  -0.187  -0.247   0.207
    1UNL    O10   33  -0.144  -0.376   0.157
    1UNL    C24   34  -0.055  -0.157   0.221
    1UNL    O11   35   0.058  -0.243   0.242
    1UNL     H1   36   0.035   0.634  -0.156
    1UNL     H2   37   0.146   0.646  -0.292
    1UNL     H3   38   0.204   0.601  -0.121
    1UNL     H4   39  -0.130   0.505  -0.064
    1UNL     H5   40  -0.144   0.359  -0.174
    1UNL     H6   41  -0.261   0.205   0.148
    1UNL     H7   42  -0.331   0.261  -0.005
    1UNL     H8   43  -0.302   0.387   0.128
    1UNL     H9   44   0.170   0.364   0.193
    1UNL    H10   45   0.304   0.179   0.109
    1UNL    H11   46   0.194   0.078   0.189
    1UNL    H12   47   0.429  -0.337   0.109
    1UNL    H13   48   0.378  -0.553  -0.015
    1UNL    H14   49   0.234  -0.567  -0.197
    1UNL    H15   50   0.113  -0.366  -0.288
    1UNL    H16   51   0.157  -0.148  -0.173
    1UNL    H17   52   0.208   0.230  -0.152
    1UNL    H18   53   0.034   0.045  -0.137
    1UNL    H19   54  -0.078   0.164  -0.201
    1UNL    H20   55   0.074  -0.044   0.081
    1UNL    H21   56  -0.242  -0.056  -0.072
    1UNL    H22   57  -0.197  -0.250  -0.240
    1UNL    H23   58  -0.240  -0.361  -0.108
    1UNL    H24   59  -0.437  -0.179  -0.183
    1UNL    H25   60  -0.374  -0.262   0.089
    1UNL    H26   61  -0.272  -0.010   0.141
    1UNL    H27   62  -0.223  -0.269   0.309
    1UNL    H28   63  -0.065  -0.404   0.212
    1UNL    H29   64  -0.051  -0.088   0.311
    1UNL    H30   65   0.135  -0.190   0.219
   0.00000   0.00000   0.00000   0.00000   0.00000   0.00000   0.00000   0.00000   0.00000
Generated with MDTraj, t= 92.0
 65
    1UNL     C1    1   0.104   0.602  -0.202
    1UNL     O1    2   0.076   0.464  -0.232
    1UNL     C2    3   0.054   0.392  -0.111
    1UNL     C3    4  -0.101   0.392  -0.066
    1UNL     C4    5  -0.109   0.295   0.060
    1UNL     C5    6  -0.251   0.276   0.098
    1UNL     O2    7  -0.035   0.361   0.161
    1UNL     C6    8   0.104   0.359   0.107
    1UNL     O3    9   0.126   0.451  -0.002
    1UNL     C7   10   0.121   0.214   0.042
    1UNL     C8   11   0.238   0.128   0.075
    1UNL     O4   12   0.253   0.018  -0.015
    1UNL     C9   13   0.284  -0.096   0.057
    1UNL     O5   14   0.304  -0.094   0.178
    1UNL    C10   15   0.276  -0.232  -0.015
    1UNL    C11   16   0.351  -0.341   0.023
    1UNL    C12   17   0.342  -0.460  -0.049
    1UNL    C13   18   0.257  -0.481  -0.155
    1UNL    C14   19   0.171  -0.372  -0.184
    1UNL    C15   20   0.185  -0.256  -0.118
    1UNL    C16   21   0.111   0.247  -0.110
    1UNL    C17   22  -0.001   0.133  -0.120
    1UNL    C18   23  -0.029   0.160   0.031
    1UNL     O6   24  -0.080   0.064   0.121
    1UNL    C19   25  -0.037  -0.076   0.098
    1UNL     O7   26  -0.081  -0.140  -0.029
    1UNL    C20   27  -0.224  -0.155  -0.041
    1UNL    C21   28  -0.258  -0.250  -0.163
    1UNL     O8   29  -0.397  -0.262  -0.187
    1UNL    C22   30  -0.290  -0.188   0.091
    1UNL     O9   31  -0.347  -0.065   0.136
    1UNL    C23   32  -0.195  -0.250   0.196
    1UNL    O10   33  -0.159  -0.381   0.143
    1UNL    C24   34  -0.070  -0.166   0.223
    1UNL    O11   35   0.043  -0.247   0.260
    1UNL     H1   36   0.019   0.641  -0.156
    1UNL     H2   37   0.121   0.665  -0.292
    1UNL     H3   38   0.190   0.610  -0.135
    1UNL     H4   39  -0.129   0.495  -0.039
    1UNL     H5   40  -0.169   0.361  -0.157
    1UNL     H6   41  -0.254   0.233   0.202
    1UNL     H7   42  -0.295   0.185   0.049
    1UNL     H8   43  -0.309   0.375   0.084
    1UNL     H9   44   0.173   0.378   0.190
    1UNL    H10   45   0.337   0.180   0.077
    1UNL    H11   46   0.226   0.106   0.187
    1UNL    H12   47   0.395  -0.345   0.115
    1UNL    H13   48   0.403  -0.537  -0.013
    1UNL    H14   49   0.248  -0.580  -0.203
    1UNL    H15   50   0.100  -0.396  -0.260
    1UNL    H16   51   0.125  -0.174  -0.143
    1UNL    H17   52   0.203   0.230  -0.173
    1UNL    H18   53   0.038   0.038  -0.139
    1UNL    H19   54  -0.074   0.153  -0.192
    1UNL    H20   55   0.068  -0.066   0.084
    1UNL    H21   56  -0.256  -0.052  -0.071
    1UNL    H22   57  -0.206  -0.218  -0.264
    1UNL    H23   58  -0.220  -0.347  -0.134
    1UNL    H24   59  -0.438  -0.175  -0.210
    1UNL    H25   60  -0.382  -0.246   0.076
    1UNL    H26   61  -0.268  -0.008   0.140
    1UNL    H27   62  -0.246  -0.273   0.292
    1UNL    H28   63  -0.082  -0.416   0.190
    1UNL    H29   64  -0.086  -0.094   0.308
    1UNL    H30   65   0.131  -0.198   0.239
   0.00000   0.00000   0.00000   0.00000   0.00000   0.00000   0.00000   0.00000   0.00000
Generated with MDTraj, t= 93.0
 65
    1UNL     C1    1   0.061   0.588  -0.231
    1UNL     O1    2   0.059   0.454  -0.248
    1UNL     C2    3   0.050   0.388  -0.116
    1UNL     C3    4  -0.103   0.402  -0.054
    1UNL     C4    5  -0.109   0.307   0.068
    1UNL     C5    6  -0.249   0.296   0.130
    1UNL     O2    7  -0.018   0.356   0.167
    1UNL     C6    8   0.112   0.349   0.106
    1UNL     O3    9   0.131   0.444  -0.007
    1UNL     C7   10   0.112   0.208   0.038
    1UNL     C8   11   0.215   0.109   0.096
    1UNL     O4   12   0.233   0.003   0.003
    1UNL     C9   13   0.265  -0.113   0.069
    1UNL     O5   14   0.284  -0.112   0.188
    1UNL    C10   15   0.278  -0.237  -0.006
    1UNL    C11   16   0.357  -0.349   0.022
    1UNL    C12   17   0.363  -0.468  -0.042
    1UNL    C13   18   0.273  -0.489  -0.142
    1UNL    C14   19   0.188  -0.384  -0.168
    1UNL    C15   20   0.186  -0.259  -0.106
    1UNL    C16   21   0.101   0.237  -0.118
    1UNL    C17   22  -0.019   0.136  -0.124
    1UNL    C18   23  -0.044   0.169   0.028
    1UNL     O6   24  -0.076   0.067   0.128
    1UNL    C19   25  -0.035  -0.067   0.097
    1UNL     O7   26  -0.077  -0.110  -0.032
    1UNL    C20   27  -0.220  -0.128  -0.042
    1UNL    C21   28  -0.240  -0.242  -0.151
    1UNL     O8   29  -0.376  -0.254  -0.182
    1UNL    C22   30  -0.286  -0.160   0.088
    1UNL     O9   31  -0.319  -0.043   0.162
    1UNL    C23   32  -0.193  -0.249   0.171
    1UNL    O10   33  -0.157  -0.367   0.091
    1UNL    C24   34  -0.066  -0.174   0.205
    1UNL    O11   35   0.048  -0.265   0.233
    1UNL     H1   36  -0.034   0.619  -0.206
    1UNL     H2   37   0.072   0.627  -0.336
    1UNL     H3   38   0.147   0.617  -0.173
    1UNL     H4   39  -0.113   0.508  -0.014
    1UNL     H5   40  -0.170   0.382  -0.127
    1UNL     H6   41  -0.257   0.227   0.221
    1UNL     H7   42  -0.311   0.226   0.067
    1UNL     H8   43  -0.295   0.400   0.144
    1UNL     H9   44   0.182   0.363   0.189
    1UNL    H10   45   0.308   0.173   0.106
    1UNL    H11   46   0.198   0.070   0.203
    1UNL    H12   47   0.426  -0.323   0.108
    1UNL    H13   48   0.429  -0.550  -0.005
    1UNL    H14   49   0.260  -0.581  -0.196
    1UNL    H15   50   0.114  -0.395  -0.255
    1UNL    H16   51   0.125  -0.172  -0.143
    1UNL    H17   52   0.187   0.211  -0.187
    1UNL    H18   53   0.009   0.032  -0.136
    1UNL    H19   54  -0.098   0.145  -0.185
    1UNL    H20   55   0.070  -0.070   0.082
    1UNL    H21   56  -0.259  -0.035  -0.085
    1UNL    H22   57  -0.176  -0.207  -0.242
    1UNL    H23   58  -0.199  -0.338  -0.112
    1UNL    H24   59  -0.405  -0.193  -0.254
    1UNL    H25   60  -0.385  -0.200   0.063
    1UNL    H26   61  -0.236   0.006   0.154
    1UNL    H27   62  -0.247  -0.289   0.259
    1UNL    H28   63  -0.074  -0.406   0.127
    1UNL    H29   64  -0.080  -0.131   0.306
    1UNL    H30   65   0.131  -0.218   0.232
   0.00000   0.00000   0.00000   0.00000   0.00000   0.00000   0.00000   0.00000   0.00000
Generated with MDTraj, t= 94.0
 65
    1UNL     C1    1   0.039   0.575  -0.240
    1UNL     O1    2   0.056   0.436  -0.248
    1UNL     C2    3   0.047   0.390  -0.113
    1UNL     C3    4  -0.095   0.389  -0.053
    1UNL     C4    5  -0.100   0.312   0.076
    1UNL     C5    6  -0.232   0.308   0.151
    1UNL     O2    7  -0.001   0.378   0.164
    1UNL     C6    8   0.126   0.360   0.100
    1UNL     O3    9   0.132   0.453  -0.012
    1UNL     C7   10   0.122   0.213   0.047
    1UNL     C8   11   0.244   0.124   0.073
    1UNL     O4   12   0.232   0.001   0.001
    1UNL     C9   13   0.274  -0.111   0.069
    1UNL     O5   14   0.296  -0.105   0.188
    1UNL    C10   15   0.283  -0.241  -0.004
    1UNL    C11   16   0.377  -0.334   0.034
    1UNL    C12   17   0.379  -0.453  -0.029
    1UNL    C13   18   0.295  -0.493  -0.136
    1UNL    C14   19   0.196  -0.402  -0.169
    1UNL    C15   20   0.195  -0.276  -0.105
    1UNL    C16   21   0.094   0.235  -0.110
    1UNL    C17   22  -0.013   0.120  -0.109
    1UNL    C18   23  -0.031   0.164   0.047
    1UNL     O6   24  -0.084   0.065   0.138
    1UNL    C19   25  -0.046  -0.066   0.102
    1UNL     O7   26  -0.087  -0.097  -0.029
    1UNL    C20   27  -0.232  -0.126  -0.046
    1UNL    C21   28  -0.260  -0.220  -0.162
    1UNL     O8   29  -0.398  -0.236  -0.190
    1UNL    C22   30  -0.300  -0.179   0.078
    1UNL     O9   31  -0.350  -0.064   0.148
    1UNL    C23   32  -0.201  -0.264   0.163
    1UNL    O10   33  -0.166  -0.380   0.088
    1UNL    C24   34  -0.081  -0.180   0.203
    1UNL    O11   35   0.039  -0.262   0.212
    1UNL     H1   36  -0.061   0.601  -0.256
    1UNL     H2   37   0.093   0.620  -0.329
    1UNL     H3   38   0.094   0.613  -0.156
    1UNL     H4   39  -0.117   0.493  -0.022
    1UNL     H5   40  -0.151   0.347  -0.130
    1UNL     H6   41  -0.224   0.236   0.240
    1UNL     H7   42  -0.320   0.262   0.096
    1UNL     H8   43  -0.250   0.413   0.180
    1UNL     H9   44   0.217   0.374   0.161
    1UNL    H10   45   0.343   0.169   0.043
    1UNL    H11   46   0.245   0.113   0.187
    1UNL    H12   47   0.436  -0.305   0.115
    1UNL    H13   48   0.443  -0.531  -0.002
    1UNL    H14   49   0.307  -0.592  -0.177
    1UNL    H15   50   0.136  -0.410  -0.248
    1UNL    H16   51   0.120  -0.212  -0.138
    1UNL    H17   52   0.178   0.219  -0.182
    1UNL    H18   53   0.026   0.023  -0.109
    1UNL    H19   54  -0.100   0.118  -0.166
    1UNL    H20   55   0.067  -0.048   0.085
    1UNL    H21   56  -0.275  -0.029  -0.066
    1UNL    H22   57  -0.203  -0.185  -0.255
    1UNL    H23   58  -0.219  -0.323  -0.130
    1UNL    H24   59  -0.442  -0.148  -0.184
    1UNL    H25   60  -0.390  -0.235   0.048
    1UNL    H26   61  -0.269  -0.002   0.153
    1UNL    H27   62  -0.252  -0.298   0.254
    1UNL    H28   63  -0.076  -0.407   0.116
    1UNL    H29   64  -0.098  -0.130   0.298
    1UNL    H30   65   0.113  -0.195   0.215
   0.00000   0.00000   0.00000   0.00000   0.00000   0.00000   0.00000   0.00000   0.00000
Generated with MDTraj, t= 95.0
 65
    1UNL     C1    1   0.051   0.597  -0.230
    1UNL     O1    2   0.052   0.451  -0.243
    1UNL     C2    3   0.046   0.392  -0.116
    1UNL     C3    4  -0.100   0.397  -0.056
    1UNL     C4    5  -0.100   0.303   0.076
    1UNL     C5    6  -0.237   0.293   0.145
    1UNL     O2    7   0.000   0.359   0.159
    1UNL     C6    8   0.125   0.344   0.092
    1UNL     O3    9   0.134   0.437  -0.010
    1UNL     C7   10   0.123   0.203   0.029
    1UNL     C8   11   0.238   0.110   0.085
    1UNL     O4   12   0.249   0.004   0.002
    1UNL     C9   13   0.277  -0.108   0.077
    1UNL     O5   14   0.278  -0.114   0.199
    1UNL    C10   15   0.297  -0.235  -0.002
    1UNL    C11   16   0.403  -0.322   0.027
    1UNL    C12   17   0.405  -0.450  -0.031
    1UNL    C13   18   0.305  -0.490  -0.124
    1UNL    C14   19   0.210  -0.401  -0.163
    1UNL    C15   20   0.205  -0.278  -0.098
    1UNL    C16   21   0.089   0.237  -0.123
    1UNL    C17   22  -0.029   0.137  -0.128
    1UNL    C18   23  -0.033   0.162   0.035
    1UNL     O6   24  -0.071   0.057   0.124
    1UNL    C19   25  -0.043  -0.074   0.082
    1UNL     O7   26  -0.100  -0.127  -0.042
    1UNL    C20   27  -0.246  -0.130  -0.053
    1UNL    C21   28  -0.292  -0.215  -0.169
    1UNL     O8   29  -0.430  -0.197  -0.198
    1UNL    C22   30  -0.305  -0.174   0.085
    1UNL     O9   31  -0.341  -0.053   0.158
    1UNL    C23   32  -0.197  -0.267   0.169
    1UNL    O10   33  -0.162  -0.387   0.099
    1UNL    C24   34  -0.075  -0.174   0.205
    1UNL    O11   35   0.038  -0.254   0.248
    1UNL     H1   36  -0.037   0.635  -0.183
    1UNL     H2   37   0.047   0.649  -0.332
    1UNL     H3   38   0.146   0.626  -0.188
    1UNL     H4   39  -0.117   0.488  -0.016
    1UNL     H5   40  -0.173   0.366  -0.137
    1UNL     H6   41  -0.242   0.232   0.244
    1UNL     H7   42  -0.314   0.240   0.082
    1UNL     H8   43  -0.275   0.394   0.161
    1UNL     H9   44   0.211   0.357   0.160
    1UNL    H10   45   0.328   0.178   0.079
    1UNL    H11   46   0.238   0.074   0.190
    1UNL    H12   47   0.466  -0.295   0.113
    1UNL    H13   48   0.482  -0.515   0.013
    1UNL    H14   49   0.316  -0.590  -0.166
    1UNL    H15   50   0.131  -0.444  -0.234
    1UNL    H16   51   0.122  -0.209  -0.123
    1UNL    H17   52   0.170   0.230  -0.203
    1UNL    H18   53  -0.008   0.041  -0.152
    1UNL    H19   54  -0.121   0.168  -0.177
    1UNL    H20   55   0.067  -0.072   0.057
    1UNL    H21   56  -0.273  -0.029  -0.075
    1UNL    H22   57  -0.238  -0.193  -0.265
    1UNL    H23   58  -0.279  -0.329  -0.142
    1UNL    H24   59  -0.469  -0.119  -0.155
    1UNL    H25   60  -0.393  -0.238   0.062
    1UNL    H26   61  -0.263   0.002   0.165
    1UNL    H27   62  -0.243  -0.304   0.262
    1UNL    H28   63  -0.072  -0.408   0.126
    1UNL    H29   64  -0.093  -0.111   0.290
    1UNL    H30   65   0.126  -0.206   0.241
   0.00000   0.00000   0.00000   0.00000   0.00000   0.00000   0.00000   0.00000   0.00000
Generated with MDTraj, t= 96.0
 65
    1UNL     C1    1   0.097   0.596  -0.204
    1UNL     O1    2   0.063   0.465  -0.238
    1UNL     C2    3   0.052   0.387  -0.117
    1UNL     C3    4  -0.101   0.382  -0.073
    1UNL     C4    5  -0.116   0.291   0.049
    1UNL     C5    6  -0.255   0.267   0.102
    1UNL     O2    7  -0.032   0.353   0.157
    1UNL     C6    8   0.097   0.343   0.106
    1UNL     O3    9   0.117   0.440  -0.002
    1UNL     C7   10   0.108   0.207   0.032
    1UNL     C8   11   0.223   0.113   0.067
    1UNL     O4   12   0.231  -0.008  -0.007
    1UNL     C9   13   0.269  -0.112   0.073
    1UNL     O5   14   0.297  -0.111   0.192
    1UNL    C10   15   0.282  -0.250   0.003
    1UNL    C11   16   0.399  -0.319   0.020
    1UNL    C12   17   0.433  -0.447  -0.040
    1UNL    C13   18   0.344  -0.493  -0.131
    1UNL    C14   19   0.228  -0.415  -0.156
    1UNL    C15   20   0.193  -0.300  -0.091
    1UNL    C16   21   0.095   0.236  -0.124
    1UNL    C17   22  -0.020   0.130  -0.127
    1UNL    C18   23  -0.039   0.152   0.023
    1UNL     O6   24  -0.075   0.053   0.120
    1UNL    C19   25  -0.036  -0.075   0.086
    1UNL     O7   26  -0.091  -0.122  -0.035
    1UNL    C20   27  -0.237  -0.111  -0.030
    1UNL    C21   28  -0.292  -0.191  -0.142
    1UNL     O8   29  -0.426  -0.167  -0.181
    1UNL    C22   30  -0.306  -0.161   0.104
    1UNL     O9   31  -0.347  -0.045   0.177
    1UNL    C23   32  -0.199  -0.255   0.181
    1UNL    O10   33  -0.181  -0.362   0.094
    1UNL    C24   34  -0.064  -0.176   0.202
    1UNL    O11   35   0.051  -0.265   0.220
    1UNL     H1   36   0.008   0.644  -0.165
    1UNL     H2   37   0.123   0.654  -0.301
    1UNL     H3   38   0.188   0.592  -0.143
    1UNL     H4   39  -0.123   0.483  -0.049
    1UNL     H5   40  -0.170   0.341  -0.154
    1UNL     H6   41  -0.248   0.220   0.206
    1UNL     H7   42  -0.317   0.192   0.043
    1UNL     H8   43  -0.321   0.356   0.104
    1UNL     H9   44   0.166   0.367   0.189
    1UNL    H10   45   0.328   0.146   0.056
    1UNL    H11   46   0.222   0.088   0.172
    1UNL    H12   47   0.468  -0.277   0.090
    1UNL    H13   48   0.523  -0.491  -0.009
    1UNL    H14   49   0.357  -0.587  -0.180
    1UNL    H15   50   0.157  -0.451  -0.234
    1UNL    H16   51   0.100  -0.249  -0.112
    1UNL    H17   52   0.184   0.220  -0.194
    1UNL    H18   53   0.008   0.033  -0.152
    1UNL    H19   54  -0.098   0.156  -0.194
    1UNL    H20   55   0.067  -0.077   0.059
    1UNL    H21   56  -0.257  -0.006  -0.044
    1UNL    H22   57  -0.230  -0.175  -0.234
    1UNL    H23   58  -0.288  -0.310  -0.120
    1UNL    H24   59  -0.485  -0.217  -0.121
    1UNL    H25   60  -0.394  -0.228   0.089
    1UNL    H26   61  -0.266   0.013   0.200
    1UNL    H27   62  -0.247  -0.294   0.271
    1UNL    H28   63  -0.082  -0.385   0.093
    1UNL    H29   64  -0.070  -0.123   0.295
    1UNL    H30   65   0.133  -0.217   0.225
   0.00000   0.00000   0.00000   0.00000   0.00000   0.00000   0.00000   0.00000   0.00000
Generated with MDTraj, t= 97.0
 65
    1UNL     C1    1   0.123   0.573  -0.219
    1UNL     O1    2   0.090   0.440  -0.232
    1UNL     C2    3   0.056   0.377  -0.114
    1UNL     C3    4  -0.106   0.384  -0.084
    1UNL     C4    5  -0.124   0.294   0.041
    1UNL     C5    6  -0.274   0.287   0.074
    1UNL     O2    7  -0.052   0.364   0.146
    1UNL     C6    8   0.088   0.355   0.115
    1UNL     O3    9   0.121   0.437   0.003
    1UNL     C7   10   0.104   0.208   0.048
    1UNL     C8   11   0.215   0.111   0.095
    1UNL     O4   12   0.248   0.007   0.002
    1UNL     C9   13   0.283  -0.110   0.063
    1UNL     O5   14   0.282  -0.112   0.184
    1UNL    C10   15   0.314  -0.232  -0.019
    1UNL    C11   16   0.435  -0.297  -0.005
    1UNL    C12   17   0.442  -0.429  -0.056
    1UNL    C13   18   0.341  -0.490  -0.125
    1UNL    C14   19   0.221  -0.418  -0.147
    1UNL    C15   20   0.215  -0.289  -0.097
    1UNL    C16   21   0.103   0.230  -0.099
    1UNL    C17   22  -0.006   0.120  -0.113
    1UNL    C18   23  -0.046   0.157   0.029
    1UNL     O6   24  -0.085   0.052   0.119
    1UNL    C19   25  -0.043  -0.082   0.081
    1UNL     O7   26  -0.109  -0.126  -0.040
    1UNL    C20   27  -0.250  -0.121  -0.029
    1UNL    C21   28  -0.319  -0.196  -0.143
    1UNL     O8   29  -0.448  -0.148  -0.170
    1UNL    C22   30  -0.303  -0.162   0.115
    1UNL     O9   31  -0.331  -0.049   0.188
    1UNL    C23   32  -0.201  -0.262   0.176
    1UNL    O10   33  -0.190  -0.383   0.109
    1UNL    C24   34  -0.063  -0.184   0.195
    1UNL    O11   35   0.048  -0.274   0.210
    1UNL     H1   36   0.031   0.628  -0.190
    1UNL     H2   37   0.157   0.611  -0.322
    1UNL     H3   38   0.208   0.579  -0.150
    1UNL     H4   39  -0.143   0.495  -0.056
    1UNL     H5   40  -0.161   0.350  -0.173
    1UNL     H6   41  -0.286   0.211   0.152
    1UNL     H7   42  -0.350   0.260  -0.006
    1UNL     H8   43  -0.316   0.387   0.112
    1UNL     H9   44   0.153   0.356   0.204
    1UNL    H10   45   0.305   0.161   0.127
    1UNL    H11   46   0.188   0.056   0.182
    1UNL    H12   47   0.521  -0.243   0.035
    1UNL    H13   48   0.533  -0.496  -0.042
    1UNL    H14   49   0.337  -0.593  -0.161
    1UNL    H15   50   0.144  -0.449  -0.202
    1UNL    H16   51   0.124  -0.238  -0.118
    1UNL    H17   52   0.204   0.206  -0.145
    1UNL    H18   53   0.038   0.021  -0.122
    1UNL    H19   54  -0.066   0.155  -0.187
    1UNL    H20   55   0.059  -0.069   0.047
    1UNL    H21   56  -0.281  -0.020  -0.043
    1UNL    H22   57  -0.271  -0.185  -0.245
    1UNL    H23   58  -0.317  -0.315  -0.122
    1UNL    H24   59  -0.496  -0.135  -0.084
    1UNL    H25   60  -0.396  -0.223   0.105
    1UNL    H26   61  -0.253   0.007   0.198
    1UNL    H27   62  -0.238  -0.280   0.277
    1UNL    H28   63  -0.119  -0.427   0.152
    1UNL    H29   64  -0.071  -0.120   0.283
    1UNL    H30   65   0.133  -0.216   0.214
   0.00000   0.00000   0.00000   0.00000   0.00000   0.00000   0.00000   0.00000   0.00000
Generated with MDTraj, t= 98.0
 65
    1UNL     C1    1   0.126   0.569  -0.229
    1UNL     O1    2   0.099   0.429  -0.242
    1UNL     C2    3   0.066   0.373  -0.118
    1UNL     C3    4  -0.091   0.378  -0.091
    1UNL     C4    5  -0.114   0.288   0.033
    1UNL     C5    6  -0.257   0.268   0.073
    1UNL     O2    7  -0.040   0.355   0.140
    1UNL     C6    8   0.101   0.350   0.109
    1UNL     O3    9   0.137   0.434  -0.001
    1UNL     C7   10   0.113   0.200   0.049
    1UNL     C8   11   0.209   0.102   0.106
    1UNL     O4   12   0.259   0.005   0.021
    1UNL     C9   13   0.284  -0.108   0.091
    1UNL     O5   14   0.277  -0.106   0.211
    1UNL    C10   15   0.312  -0.227   0.005
    1UNL    C11   16   0.444  -0.279  -0.011
    1UNL    C12   17   0.458  -0.388  -0.094
    1UNL    C13   18   0.345  -0.447  -0.156
    1UNL    C14   19   0.222  -0.390  -0.158
    1UNL    C15   20   0.211  -0.276  -0.078
    1UNL    C16   21   0.124   0.217  -0.108
    1UNL    C17   22   0.013   0.107  -0.116
    1UNL    C18   23  -0.036   0.148   0.023
    1UNL     O6   24  -0.093   0.052   0.112
    1UNL    C19   25  -0.063  -0.084   0.082
    1UNL     O7   26  -0.132  -0.131  -0.036
    1UNL    C20   27  -0.270  -0.125  -0.026
    1UNL    C21   28  -0.340  -0.193  -0.147
    1UNL     O8   29  -0.475  -0.155  -0.157
    1UNL    C22   30  -0.318  -0.172   0.119
    1UNL     O9   31  -0.350  -0.067   0.195
    1UNL    C23   32  -0.211  -0.263   0.185
    1UNL    O10   33  -0.187  -0.381   0.114
    1UNL    C24   34  -0.076  -0.178   0.201
    1UNL    O11   35   0.039  -0.264   0.203
    1UNL     H1   36   0.035   0.622  -0.188
    1UNL     H2   37   0.155   0.615  -0.327
    1UNL     H3   38   0.210   0.580  -0.161
    1UNL     H4   39  -0.120   0.491  -0.080
    1UNL     H5   40  -0.150   0.337  -0.178
    1UNL     H6   41  -0.264   0.202   0.159
    1UNL     H7   42  -0.306   0.217  -0.016
    1UNL     H8   43  -0.323   0.365   0.073
    1UNL     H9   44   0.174   0.364   0.190
    1UNL    H10   45   0.306   0.149   0.118
    1UNL    H11   46   0.174   0.068   0.199
    1UNL    H12   47   0.526  -0.237   0.043
    1UNL    H13   48   0.553  -0.428  -0.101
    1UNL    H14   49   0.347  -0.538  -0.210
    1UNL    H15   50   0.130  -0.437  -0.212
    1UNL    H16   51   0.115  -0.220  -0.080
    1UNL    H17   52   0.233   0.210  -0.141
    1UNL    H18   53   0.073   0.017  -0.122
    1UNL    H19   54  -0.061   0.123  -0.187
    1UNL    H20   55   0.044  -0.089   0.056
    1UNL    H21   56  -0.294  -0.020  -0.035
    1UNL    H22   57  -0.284  -0.153  -0.236
    1UNL    H23   58  -0.324  -0.311  -0.154
    1UNL    H24   59  -0.511  -0.139  -0.067
    1UNL    H25   60  -0.407  -0.237   0.119
    1UNL    H26   61  -0.272  -0.007   0.210
    1UNL    H27   62  -0.257  -0.288   0.282
    1UNL    H28   63  -0.101  -0.377   0.061
    1UNL    H29   64  -0.064  -0.124   0.297
    1UNL    H30   65   0.126  -0.222   0.211
   0.00000   0.00000   0.00000   0.00000   0.00000   0.00000   0.00000   0.00000   0.00000
Generated with MDTraj, t= 99.0
 65
    1UNL     C1    1   0.121   0.567  -0.246
    1UNL     O1    2   0.111   0.428  -0.251
    1UNL     C2    3   0.079   0.368  -0.123
    1UNL     C3    4  -0.077   0.373  -0.100
    1UNL     C4    5  -0.113   0.293   0.029
    1UNL     C5    6  -0.258   0.282   0.058
    1UNL     O2    7  -0.049   0.367   0.134
    1UNL     C6    8   0.095   0.345   0.108
    1UNL     O3    9   0.128   0.431  -0.004
    1UNL     C7   10   0.111   0.199   0.048
    1UNL     C8   11   0.207   0.097   0.113
    1UNL     O4   12   0.235  -0.019   0.033
    1UNL     C9   13   0.269  -0.129   0.109
    1UNL     O5   14   0.276  -0.135   0.230
    1UNL    C10   15   0.291  -0.250   0.012
    1UNL    C11   16   0.427  -0.274  -0.014
    1UNL    C12   17   0.478  -0.353  -0.118
    1UNL    C13   18   0.376  -0.412  -0.194
    1UNL    C14   19   0.245  -0.380  -0.175
    1UNL    C15   20   0.196  -0.295  -0.076
    1UNL    C16   21   0.120   0.214  -0.099
    1UNL    C17   22   0.015   0.110  -0.116
    1UNL    C18   23  -0.040   0.150   0.023
    1UNL     O6   24  -0.088   0.055   0.118
    1UNL    C19   25  -0.053  -0.084   0.091
    1UNL     O7   26  -0.121  -0.126  -0.030
    1UNL    C20   27  -0.263  -0.121  -0.020
    1UNL    C21   28  -0.336  -0.187  -0.139
    1UNL     O8   29  -0.476  -0.173  -0.139
    1UNL    C22   30  -0.319  -0.164   0.125
    1UNL     O9   31  -0.337  -0.050   0.196
    1UNL    C23   32  -0.215  -0.262   0.185
    1UNL    O10   33  -0.189  -0.366   0.095
    1UNL    C24   34  -0.082  -0.180   0.209
    1UNL    O11   35   0.024  -0.273   0.225
    1UNL     H1   36   0.017   0.611  -0.241
    1UNL     H2   37   0.177   0.603  -0.332
    1UNL     H3   38   0.174   0.594  -0.158
    1UNL     H4   39  -0.106   0.472  -0.094
    1UNL     H5   40  -0.121   0.337  -0.203
    1UNL     H6   41  -0.263   0.244   0.163
    1UNL     H7   42  -0.316   0.216  -0.013
    1UNL     H8   43  -0.310   0.383   0.038
    1UNL     H9   44   0.158   0.365   0.196
    1UNL    H10   45   0.295   0.150   0.149
    1UNL    H11   46   0.162   0.053   0.196
    1UNL    H12   47   0.504  -0.244   0.057
    1UNL    H13   48   0.585  -0.362  -0.151
    1UNL    H14   49   0.419  -0.473  -0.274
    1UNL    H15   50   0.174  -0.427  -0.241
    1UNL    H16   51   0.095  -0.276  -0.058
    1UNL    H17   52   0.221   0.183  -0.142
    1UNL    H18   53   0.041   0.010  -0.121
    1UNL    H19   54  -0.069   0.128  -0.185
    1UNL    H20   55   0.060  -0.090   0.078
    1UNL    H21   56  -0.284  -0.013  -0.024
    1UNL    H22   57  -0.297  -0.152  -0.240
    1UNL    H23   58  -0.306  -0.300  -0.132
    1UNL    H24   59  -0.518  -0.184  -0.052
    1UNL    H25   60  -0.414  -0.220   0.125
    1UNL    H26   61  -0.249  -0.008   0.201
    1UNL    H27   62  -0.258  -0.300   0.280
    1UNL    H28   63  -0.097  -0.372   0.065
    1UNL    H29   64  -0.078  -0.127   0.309
    1UNL    H30   65   0.108  -0.224   0.241
   0.00000   0.00000   0.00000   0.00000   0.00000   0.00000   0.00000   0.00000   0.00000
