[ moleculetype ]
; name        nrexcl
res           1

[ atoms ]
;    nr  type  resnr resid  atom  cgnr     charge       mass
      1 TN3r      1 res   C1        1      0.000     36.000
      2 SN4a      1 res   C2        2      0.000     54.000
      3 SC4       1 res   C3        3      0.000     54.000
      4 TN4a      1 res   C4        4      0.000     36.000
      5 SN6       1 res   C5        5      0.000     54.000
      6 N4a       1 res   C6        6      0.000     72.000
      7 TC5       1 res   C7        7      0.000     36.000
      8 TC5       1 res   C8        8      0.000     36.000
      9 TC5       1 res   C9        9      0.000     36.000
     10 SN4a      1 res   C10      10      0.000     54.000
     11 TP1       1 res   C11      11      0.000     36.000
     12 SP4       1 res   C12      12      0.000     54.000
     13 TN6       1 res   C13      13      0.000     36.000

[ constraints ]
;  ai    aj   funct      b0(nm)
   10    11     1      0.31627
    3     5     1      0.28137
    2     3     1      0.32018
    4     5     1      0.25118
    5    10     1      0.26234
    7     9     1      0.29785
    2     5     1      0.21178
    3     4     1      0.31483
    7     8     1      0.25648
    5     6     1      0.29669
    6     7     1      0.34029
    2     4     1      0.30339
    8     9     1      0.28793

[ bonds ]
;  ai    aj   funct      b0(nm)          k(kJ/mol/nm^2)
    1     2     1      0.36371          12017.5
   10    13     1      0.28169          19334.7
   12    13     1      0.26513          12369.9
   10    12     1      0.23824          18822.9

[ angles ]
;  ai    aj    ak  funct     th0(deg)        k(kJ/mol/rad^2)
    1     2     3     1     87.53478           121.49
    1     2     4     1     80.91050           707.51
    1     2     5     1    132.82136           419.47
    2     3     4     1     57.07247          8089.66
    2     3     5     1     40.57957         11783.40
    2     4     3     1     62.34720          6904.01
    2     4     5     1     43.64283         12060.55
    2     5     3     1     79.60582          3140.56
    2     5     4     1     81.40834          4656.82
    2     5     6     1     89.91992           700.42
    2     5    10     1    106.88193           687.15
    3     2     4     1     60.58036          6115.20
    3     2     5     1     59.81460          3160.09
    3     4     5     1     58.32674          4419.02
    3     5     4     1     72.22936          4671.80
    3     5     6     1    159.20977           647.89
    3     5    10     1    102.18716           315.19
    4     2     5     1     54.94882          5051.57
    4     3     5     1     49.44380          5797.34
    4     5     6     1     88.93968           803.78
    4     5    10     1    168.27162           409.01
    5     6     7     1    129.97767           143.41
    5    10    11     1    142.74567            69.95
    5    10    12     1    129.69554            96.30
    5    10    13     1     90.15259           242.12
    6     5    10     1     97.62690           296.61
    6     7     8     1    148.10349           735.74
    6     7     9     1     86.82898           914.51
    7     8     9     1     66.04976          4272.89
    7     9     8     1     51.88919         12786.65
    8     7     9     1     62.06101          5073.80
   10    12    13     1     68.02558           342.17
   10    13    12     1     51.44991           993.89
   11    10    12     1     72.31490           734.23
   11    10    13     1    124.91018           153.13
   12    10    13     1     60.52794           646.27

[ dihedrals ]
;  ai    aj    ak    al  funct   phi0(deg)        k(kJ/mol)   mult
    1     2     3     4     1     97.16082        7.010      1
    1     2     3     5     1     34.02495        7.799      1
    1     2     4     3     1    -82.29766       13.567      1
    1     2     4     5     1    -11.76822       12.190      1
    1     2     5     3     1   -121.95804       18.264      1
    1     2     5     4     1    165.08046       16.288      1
    1     2     5     6     1     77.24692       16.219      1
    1     2     5    10     1    -23.51662       15.576      1
    2     3     4     5     1    129.97578        3.190      1
    2     3     5     4     1    -95.98901        3.246      1
    2     3     5     6     1   -118.08724       16.366      1
    2     3     5    10     1     73.08636        7.089      1
    2     4     3     5     1   -129.97578        3.190      1
    2     4     5     3     1     98.92153        3.990      1
    2     4     5     6     1    -90.76579        8.439      1
    2     4     5    10     1     24.54945       25.834      1
    2     5     3     4     1     95.98901        3.246      1
    2     5     4     3     1    -98.92153        3.990      1
    2     5     6     7     1     85.18120       19.702      1
    2     5    10    11     1    123.00354       17.112      1
    2     5    10    12     1      3.02037       15.825      1
    2     5    10    13     1    -39.95233       12.181      1
    3     2     4     5     1   -107.98278        4.740      1
    3     2     5     4     1    106.04544        3.229      1
    3     2     5     6     1     18.94418        7.033      1
    3     2     5    10     1    -79.86889       10.756      1
    3     4     2     5     1    107.98278        4.740      1
    3     4     5     6     1     -9.89141        9.197      1
    3     4     5    10     1    111.67575       26.340      1
    3     5     2     4     1   -106.04544        3.229      1
    3     5     6     7     1     27.30690       24.835      1
    3     5    10    11     1   -153.95570       17.793      1
    3     5    10    12     1     89.86954       17.403      1
    3     5    10    13     1     43.03233       12.930      1
    4     2     3     5     1    115.07358        3.989      1
    4     2     5     6     1     91.97326        6.283      1
    4     2     5    10     1     -6.04556       10.789      1
    4     3     2     5     1   -115.07358        3.989      1
    4     3     5     6     1    157.82079       17.698      1
    4     3     5    10     1     -9.82186        7.814      1
    4     5     6     7     1      3.63137       19.567      1
    4     5    10    11     1    -84.26023       25.735      1
    4     5    10    12     1    159.00761       25.480      1
    4     5    10    13     1    111.78817       26.201      1
    5     6     7     8     1   -138.67128       32.253      1
    5     6     7     9     1   -138.44039       31.427      1
    5    10    12    13     1    128.96869       15.455      1
    5    10    13    12     1    -31.22335       15.097      1
    6     5    10    11     1     32.70072       19.716      1
    6     5    10    12     1    -89.74829       19.422      1
    6     5    10    13     1   -131.75373       12.269      1
    6     7     8     9     1    178.44244       19.563      1
    6     7     9     8     1     -1.83494       13.587      1
    7     6     5    10     1   -165.89244       19.555      1
   11    10    12    13     1    -19.92074       18.322      1
   11    10    13    12     1    163.88497       17.407      1
