[ moleculetype ]
; name        nrexcl
res           1

[ atoms ]
;    nr  type  resnr resid  atom  cgnr     charge       mass
      1 TC3       1 res   C1        1      0.000     36.000
      2 TC3       1 res   C2        2      0.000     36.000
      3 TN4a      1 res   C3        3      0.000     36.000
      4 SP4       1 res   C4        4      0.000     54.000
      5 TN4a      1 res   C5        5      0.000     36.000
      6 TP1       1 res   C6        6      0.000     36.000
      7 SP4       1 res   C7        7      0.000     54.000
      8 TC5       1 res   C8        8      0.000     36.000
      9 SN4a      1 res   C9        9      0.000     54.000
     10 SC2       1 res   C10      10      0.000     54.000
     11 SN6       1 res   C11      11      0.000     54.000
     12 SC3       1 res   C12      12      0.000     54.000
     13 N4a       1 res   C13      13      0.000     72.000

[ constraints ]
;  ai    aj   funct      b0(nm)
    1     2     1      0.32526
    2    13     1      0.33285
   10    11     1      0.31999
    2     3     1      0.23545
    4     5     1      0.28858
    3     8     1      0.23139
    5     7     1      0.29504
    3     4     1      0.30711
    2     8     1      0.26741
    5     6     1      0.22562
    9    10     1      0.24252
    4     7     1      0.30718
    8     9     1      0.24104

[ bonds ]
;  ai    aj   funct      b0(nm)          k(kJ/mol/nm^2)
   11    12     1      0.31077          12254.3
   12    13     1      0.36699           6081.3

[ angles ]
;  ai    aj    ak  funct     th0(deg)        k(kJ/mol/rad^2)
    1     2     3     1     74.94249          1541.58
    1     2     8     1    114.62607           154.53
    1     2    13     1     99.21361           315.67
    2     3     4     1    133.65567           556.29
    2     3     8     1     69.87291          1968.66
    2     8     3     1     55.75208          1424.27
    2     8     9     1     83.22795          1187.58
    2    13    12     1    126.47031           232.03
    3     2     8     1     54.37477          1260.34
    3     2    13     1    132.76951            82.10
    3     4     5     1     67.34312           329.04
    3     4     7     1    121.76726           568.64
    3     8     9     1    133.94277           577.83
    4     3     8     1    150.03014           282.46
    4     5     6     1    125.00680            34.63
    4     5     7     1     63.50184          2497.68
    4     7     5     1     57.22170          2041.75
    5     4     7     1     59.27610          2740.20
    6     5     7     1     82.36237           437.83
    8     2    13     1     91.01440           289.20
    8     9    10     1    142.31869           141.50
    9    10    11     1    119.72861           198.26
   10    11    12     1     84.85094           447.02
   11    12    13     1     86.04988           551.78

[ dihedrals ]
;  ai    aj    ak    al  funct   phi0(deg)        k(kJ/mol)   mult
    1     2     3     4     1   -161.11235       24.725      1
    1     2     3     8     1     43.21189       19.006      1
    1     2     8     3     1   -138.52921       16.360      1
    1     2     8     9     1     21.91902       20.175      1
    1     2    13    12     1    -74.55492       21.499      1
    2     3     4     5     1    -33.76438       25.811      1
    2     3     4     7     1    -17.62325       22.889      1
    2     3     8     9     1    150.93529       12.911      1
    2     8     3     4     1     28.88404       17.105      1
    2     8     9    10     1    -29.04233       14.867      1
    2    13    12    11     1    -75.08658       12.873      1
    3     2     8     9     1    -21.02483       11.430      1
    3     2    13    12     1   -148.31181       19.048      1
    3     4     5     6     1     40.23994       15.076      1
    3     4     5     7     1    -16.01463       24.182      1
    3     4     7     5     1    161.41602       25.667      1
    3     8     2    13     1    -34.01663       15.072      1
    3     8     9    10     1     -7.27889       17.609      1
    4     3     2     8     1    -22.41852       15.026      1
    4     3     2    13     1    -73.17906       18.474      1
    4     3     8     9     1      1.38790       17.723      1
    4     7     5     6     1     48.02996       22.946      1
    5     4     3     8     1    104.78771       24.727      1
    6     5     4     7     1   -124.01251       17.835      1
    7     4     3     8     1    118.99957       25.096      1
    8     2    13    12     1    172.00022       16.938      1
    8     3     2    13     1    131.02898       12.870      1
    8     9    10    11     1     81.63473       20.661      1
    9     8     2    13     1    125.38819       15.654      1
    9    10    11    12     1   -131.01179       15.700      1
   10    11    12    13     1    114.73069       14.285      1
