1HEaSC00439
6
    1res  C1    1   -0.228  -0.130   0.004
    1res  C2    2   -0.150   0.044   0.002
    1res  C3    3    0.042   0.106  -0.001
    1res  C4    4    0.165   0.093  -0.003
    1res  C5    5    0.226  -0.133  -0.003
    1res  C6    6   -0.002  -0.187   0.001
  10.00000  10.00000  10.00000
