[ moleculetype ]
; name        nrexcl
res           1

[ atoms ]
;    nr  type resnr resid  atom  cgnr     charge       mass
      1 SN4a      1 res   C1        1      0.000     54.000
      2 SC3       1 res   C2        2      0.000     54.000
      3 SC4       1 res   C3        3      0.000     54.000
      4 SN6       1 res   C4        4      0.000     54.000
      5 SN4a      1 res   C5        5      0.000     54.000
      6 TP1       1 res   C6        6      0.000     36.000
      7 TN6       1 res   C7        7      0.000     36.000
      8 TN6       1 res   C8        8      0.000     36.000
      9 TN6       1 res   C9        9      0.000     36.000
     10 SC4       1 res   C10      10      0.000     54.000
     11 TC3       1 res   C11      11      0.000     36.000
     12 SC3       1 res   C12      12      0.000     54.000
     13 SC2       1 res   C13      13      0.000     54.000
     14 SC2       1 res   C14      14      0.000     54.000
     15 P4        1 res   C15      15      0.000     72.000
     16 P1        1 res   C16      16      0.000     72.000
     17 SC4       1 res   C17      17      0.000     54.000

[ bonds ]
;  ai    aj   funct      b0(nm)        k
    1     2     1      0.33931    20000
    2     3     1      0.29657    20000
    2    17     1      0.34741    20000
    3     4     1      0.29182    20000
    3    10     1      0.36824    20000
    3    17     1      0.33715    20000
    4     5     1      0.34246    20000
    4    10     1      0.31160    20000
    5     6     1      0.26703    20000
    5     7     1      0.24305    20000
    5     9     1      0.28934    20000
    7     8     1      0.26138    20000
    8     9     1      0.24869    20000
   10    11     1      0.31166    20000
   10    12     1      0.29247    20000
   11    12     1      0.31337    20000
   12    13     1      0.25609    20000
   13    14     1      0.31119    20000
   14    15     1      0.31767    20000
   15    16     1      0.28601    20000
