1TPCN06382
12
    1res  C1    1   -0.716  -0.125   0.147
    1res  C2    2   -0.470  -0.037   0.030
    1res  C3    3   -0.301  -0.214  -0.094
    1res  C4    4   -0.249   0.049  -0.137
    1res  C5    5   -0.058   0.140   0.004
    1res  C6    6    0.161   0.053  -0.127
    1res  C7    7    0.519  -0.033  -0.236
    1res  C8    8    0.754  -0.019  -0.005
    1res  C9    9    0.485  -0.025   0.168
    1res  C10   10    0.337   0.208  -0.026
    1res  C11   11    0.048  -0.162  -0.124
    1res  C12   12   -0.573   0.066   0.254
  10.00000  10.00000  10.00000
