1TPCN00146
13
    1res  C1    1    0.179   0.235  -0.325
    1res  C2    2    0.173   0.266  -0.050
    1res  C3    3    0.123   0.107   0.148
    1res  C4    4   -0.045   0.113  -0.094
    1res  C5    5   -0.250   0.335   0.139
    1res  C6    6   -0.148  -0.082   0.002
    1res  C7    7   -0.201  -0.031   0.208
    1res  C8    8   -0.243  -0.206   0.087
    1res  C9    9   -0.371  -0.321   0.268
    1res  C10   10   -0.324  -0.426  -0.001
    1res  C11   11   -0.046  -0.145  -0.232
    1res  C12   12    0.192  -0.018  -0.083
    1res  C13   13    0.313  -0.183   0.119
  10.00000  10.00000  10.00000
