[ moleculetype ]
; name        nrexcl
res           1

[ atoms ]
;    nr  type  resnr resid  atom  cgnr     charge       mass
      1 TC3       1 res   C1        1      0.000     36.000
      2 TC3       1 res   C2        2      0.000     36.000
      3 TC3       1 res   C3        3      0.000     36.000
      4 TC5       1 res   C4        4      0.000     36.000
      5 N4a       1 res   C5        5      0.000     72.000
      6 TC5       1 res   C6        6      0.000     36.000
      7 TN6d      1 res   C7        7      0.000     36.000
      8 TC5       1 res   C8        8      0.000     36.000
      9 TC5       1 res   C9        9      0.000     36.000
     10 TC5       1 res   C10      10      0.000     36.000
     11 TC3       1 res   C11      11      0.000     36.000
     12 TN6d      1 res   C12      12      0.000     36.000
     13 SN5a      1 res   C13      13      0.000     54.000

[ constraints ]
;  ai    aj   funct      b0(nm)
    2     3     1      0.27048
   11    12     1      0.24099
    4     5     1      0.36767
    6     8     1      0.18478
    3     4     1      0.29052
    7     8     1      0.21751
    6    11     1      0.25574
    8    10     1      0.25020
    9    10     1      0.29143
    6     7     1      0.21782
    8     9     1      0.25027
    2     4     1      0.26725
    3    12     1      0.24138
    4     6     1      0.24342
    4    12     1      0.25817

[ bonds ]
;  ai    aj   funct      b0(nm)          k(kJ/mol/nm^2)
    1     2     1      0.27140           4383.8
   12    13     1      0.30580           9052.7

[ angles ]
;  ai    aj    ak  funct     th0(deg)        k(kJ/mol/rad^2)
    1     2     3     1    145.45321            68.27
    1     2     4     1     86.97263            65.31
    2     3     4     1     56.76580          3534.13
    2     3    12     1     76.43489          2976.01
    2     4     3     1     57.85001          2093.35
    2     4     5     1     80.28070            90.54
    2     4     6     1    138.38338           784.49
    2     4    12     1     74.32797          3225.12
    3     2     4     1     65.38403          5571.55
    3     4     5     1     77.77389           569.71
    3     4     6     1     80.98679          1209.52
    3     4    12     1     51.77847          3322.19
    3    12     4     1     71.03168          2528.37
    3    12    11     1    124.77444           101.91
    3    12    13     1    102.49270           177.40
    4     3    12     1     57.19007          1717.22
    4     6     7     1     93.53604           414.54
    4     6     8     1    148.99828           110.47
    4     6    11     1     78.66054          2360.94
    4    12    11     1     78.62667          1349.59
    4    12    13     1    150.22110            84.13
    5     4     6     1     92.35749           265.54
    5     4    12     1    128.58686           430.00
    6     4    12     1     79.95615           248.76
    6     7     8     1     50.23617          7776.20
    6     8     7     1     64.97207          5443.09
    6     8     9     1    161.00895          1492.75
    6     8    10     1    126.80794          2110.66
    6    11    12     1     81.05134           170.83
    7     6     8     1     64.79176          7405.77
    7     6    11     1    168.00160           172.06
    7     8     9     1     96.62605          1516.62
    7     8    10     1    166.82389          1287.50
    8     6    11     1    118.04488           839.53
    8     9    10     1     54.37322          8445.62
    8    10     9     1     54.39813          8551.57
    9     8    10     1     71.22865          5516.51
   11    12    13     1    124.26168            63.85

[ dihedrals ]
;  ai    aj    ak    al  funct   phi0(deg)        k(kJ/mol)   mult
    1     2     3     4     1    144.75837       24.034      1
    1     2     3    12     1   -156.04938       22.909      1
    1     2     4     3     1    -17.29063       14.346      1
    1     2     4     5     1     60.21378       13.611      1
    1     2     4     6     1    -18.12023       13.634      1
    1     2     4    12     1    -72.17811       13.635      1
    2     3     4     5     1     92.99165       15.746      1
    2     3     4     6     1     -1.01032       11.535      1
    2     3     4    12     1    -85.92676        4.776      1
    2     3    12     4     1    120.99367        4.003      1
    2     3    12    11     1     63.02389       11.424      1
    2     3    12    13     1    -86.96018       17.128      1
    2     4     3    12     1     85.92676        4.776      1
    2     4     6     7     1    -86.10868       16.349      1
    2     4     6     8     1    -49.26406       22.243      1
    2     4     6    11     1     84.05569        7.826      1
    2     4    12     3     1   -118.06117        4.790      1
    2     4    12    11     1     14.99701       14.406      1
    2     4    12    13     1    159.38116       24.329      1
    3     2     4     5     1    -98.79121        8.543      1
    3     2     4     6     1    179.17691       15.775      1
    3     2     4    12     1    126.90150        3.989      1
    3     4     6     7     1    -88.31500       18.444      1
    3     4     6     8     1    -51.10972       25.972      1
    3     4     6    11     1     84.91556       11.555      1
    3     4    12    11     1    -45.07962       14.440      1
    3     4    12    13     1     97.40078       22.239      1
    3    12     4     5     1    175.12835       19.814      1
    3    12     4     6     1     92.11384        7.819      1
    3    12    11     6     1   -169.03605       17.134      1
    4     2     3    12     1   -121.92216        4.799      1
    4     3    12    11     1    122.27349       10.754      1
    4     3    12    13     1    -27.98158       17.799      1
    4     6     7     8     1    -25.81710       15.107      1
    4     6     8     7     1    136.85534       17.163      1
    4     6     8     9     1    134.28072       23.791      1
    4     6     8    10     1    -45.77174       21.653      1
    4     6    11    12     1   -133.90046        9.306      1
    4    12    11     6     1    135.95605       10.812      1
    5     4     3    12     1     -2.03842       16.481      1
    5     4     6     7     1   -166.88373       21.025      1
    5     4     6     8     1   -127.64629       25.088      1
    5     4     6    11     1      6.94065       15.821      1
    5     4    12    11     1    -48.04137       13.638      1
    5     4    12    13     1     91.20680       24.331      1
    6     4     3    12     1    -96.02963       10.812      1
    6     4    12    11     1   -132.05685       10.808      1
    6     4    12    13     1     10.23187       21.773      1
    6     7     8     9     1     -1.21409        9.991      1
    6     7     8    10     1     -1.01645       30.044      1
    6     8     9    10     1      1.21825       23.303      1
    6     8    10     9     1     -2.10449       12.217      1
    6    11    12    13     1    -27.11410       18.496      1
    7     6     4    12     1    -35.80098       19.103      1
    7     6     8     9     1    179.61754       22.871      1
    7     6     8    10     1      0.20320       13.606      1
    7     6    11    12     1   -117.71092       23.840      1
    7     8     6    11     1     11.95539       16.491      1
    7     8     9    10     1      0.25463       10.738      1
    7     8    10     9     1   -177.26149       28.641      1
    8     6     4    12     1      1.69273       25.295      1
    8     6    11    12     1     17.10794       22.396      1
    8     7     6    11     1    -36.60952       25.186      1
    9     8     6    11     1     10.12193       24.326      1
   10     8     6    11     1   -167.87313       15.086      1
   11     6     4    12     1    136.01149        9.397      1
