1TPCN02495
15
    1res  C1    1    0.590   0.283  -0.320
    1res  C2    2    0.727   0.042  -0.251
    1res  C3    3    0.384   0.021  -0.214
    1res  C4    4    0.174  -0.182  -0.073
    1res  C5    5   -0.252  -0.133  -0.254
    1res  C6    6   -0.404   0.083  -0.129
    1res  C7    7   -0.693  -0.025   0.148
    1res  C8    8   -0.832   0.077   0.409
    1res  C9    9   -0.918  -0.120   0.061
    1res  C10   10   -0.725  -0.099  -0.114
    1res  C11   11   -0.318   0.158   0.167
    1res  C12   12    0.628  -0.022   0.071
    1res  C13   13    0.489  -0.028   0.336
    1res  C14   14    0.833   0.028   0.230
    1res  C15   15    0.872  -0.104  -0.005
  10.00000  10.00000  10.00000
