1TPCN06115
37
    1res  C1    1    1.377   0.154   0.207
    1res  C2    2    1.241  -0.022   0.011
    1res  C3    3    1.055  -0.048  -0.053
    1res  C4    4    0.797  -0.007  -0.077
    1res  C5    5    0.911   0.215   0.032
    1res  C6    6    0.730  -0.197   0.186
    1res  C7    7    0.473  -0.073   0.207
    1res  C8    8    0.303   0.073   0.018
    1res  C9    9    0.079   0.266  -0.177
    1res  C10   10    0.344   0.281  -0.237
    1res  C11   11    0.164   0.492  -0.326
    1res  C12   12   -0.136   0.064  -0.202
    1res  C13   13   -0.179   0.227   0.103
    1res  C14   14   -0.141  -0.045   0.091
    1res  C15   15   -0.387  -0.048   0.239
    1res  C16   16   -0.612   0.049   0.097
    1res  C17   17   -0.711  -0.179   0.076
    1res  C18   18   -1.008  -0.304  -0.000
    1res  C19   19   -1.266  -0.281   0.094
    1res  C20   20   -1.129  -0.104   0.245
    1res  C21   21   -1.001  -0.053   0.076
    1res  C22   22   -1.224   0.138   0.016
    1res  C23   23   -1.503   0.116   0.037
    1res  C24   24   -1.362   0.208  -0.224
    1res  C25   25   -1.133   0.198  -0.301
    1res  C26   26   -1.033   0.253  -0.112
    1res  C27   27   -0.568  -0.327   0.206
    1res  C28   28   -0.292  -0.227  -0.066
    1res  C29   29    0.113  -0.059  -0.202
    1res  C30   30    0.379  -0.282   0.057
    1res  C31   31    0.424  -0.399   0.260
    1res  C32   32    0.490  -0.245   0.411
    1res  C33   33    0.827  -0.281  -0.067
    1res  C34   34    0.967  -0.164  -0.218
    1res  C35   35    1.387  -0.138  -0.124
    1res  C36   36    1.433   0.118  -0.177
    1res  C37   37    1.560   0.150   0.041
  10.00000  10.00000  10.00000
