1TPCN06358
16
    1res  C1    1   -0.551  -0.357  -0.184
    1res  C2    2   -0.229  -0.359  -0.053
    1res  C3    3   -0.179  -0.188   0.110
    1res  C4    4   -0.082   0.094   0.070
    1res  C5    5    0.033   0.362   0.001
    1res  C6    6   -0.072   0.455  -0.241
    1res  C7    7   -0.075   0.649   0.036
    1res  C8    8   -0.069   0.522   0.227
    1res  C9    9    0.102   0.414   0.266
    1res  C10   10    0.094  -0.148   0.040
    1res  C11   11    0.141  -0.201   0.283
    1res  C12   12    0.390  -0.011   0.306
    1res  C13   13    0.435   0.075   0.087
    1res  C14   14    0.583  -0.162  -0.091
    1res  C15   15   -0.200  -0.153  -0.270
    1res  C16   16   -0.469   0.072  -0.294
  10.00000  10.00000  10.00000
