[ moleculetype ]
; name        nrexcl
res           1

[ atoms ]
;    nr  type  resnr resid  atom  cgnr     charge       mass
      1 TC3       1 res   C1        1      0.000     36.000
      2 TC3       1 res   C2        2      0.000     36.000
      3 SC4       1 res   C3        3      0.000     54.000
      4 TC3       1 res   C4        4      0.000     36.000
      5 TC5       1 res   C5        5      0.000     36.000
      6 TC5       1 res   C6        6      0.000     36.000
      7 TC5       1 res   C7        7      0.000     36.000
      8 TC5       1 res   C8        8      0.000     36.000
      9 TN1       1 res   C9        9      0.000     36.000
     10 TN2a      1 res   C10      10      0.000     36.000
     11 SC3       1 res   C11      11      0.000     54.000
     12 N4a       1 res   C12      12      0.000     72.000
     13 TC5       1 res   C13      13      0.000     36.000
     14 TC5       1 res   C14      14      0.000     36.000
     15 TN2a      1 res   C15      15      0.000     36.000
     16 TC5       1 res   C16      16      0.000     36.000
     17 TN2a      1 res   C17      17      0.000     36.000
     18 N4a       1 res   C18      18      0.000     72.000

[ bonds ]
;  ai    aj   funct      b0(nm)          k(kJ/mol/nm^2)
    1     2     1      0.26053          29798.7
    2     3     1      0.26893          61243.4
    2    11     1      0.29799          67818.1
    3     4     1      0.32389          60281.2
    3     5     1      0.32632          97687.2
    3    11     1      0.35860          64046.1
    4     5     1      0.22257         236890.8
    4    10     1      0.21522         101921.3
    5     6     1      0.19233         235307.6
    5     9     1      0.30716          64812.8
    5    10     1      0.18192         181889.7
    5    11     1      0.27043         112873.4
    6     7     1      0.24848         205055.3
    6     8     1      0.24913         300732.6
    6     9     1      0.30160          52502.2
    7     8     1      0.28971         185596.9
   11    12     1      0.39210          31817.3
   11    18     1      0.33643          19476.3
   12    13     1      0.31290          45556.3
   13    14     1      0.22155         176176.2
   13    16     1      0.27100         178331.5
   14    15     1      0.27732           1807.4
   14    16     1      0.30256         144092.8
   16    17     1      0.27903           1665.6

[ angles ]
;  ai    aj    ak  funct     th0(deg)        k(kJ/mol/rad^2)
    1     2     3     1    170.57027           230.69
    1     2    11     1     98.82616          1045.16
    2     3     4     1     59.92783          1732.73
    2     3     5     1     74.95407          2630.96
    2     3    11     1     54.45271          2992.60
    2    11     3     1     47.23510          4736.50
    2    11     5     1     79.74701          2452.27
    2    11    12     1     81.04686           526.76
    2    11    18     1    154.80408           541.24
    3     2    11     1     78.31211          1831.28
    3     4     5     1     70.57344          3027.62
    3     4    10     1     53.08115          1953.49
    3     5     4     1     69.40012          2616.38
    3     5     6     1    152.50416          1064.10
    3     5     9     1     87.13692           910.73
    3     5    10     1     52.61846          1714.71
    3     5    11     1     73.21572          2210.33
    3    11     5     1     60.58083          4127.46
    3    11    12     1    115.25742           904.93
    3    11    18     1    134.38292           216.44
    4     3     5     1     40.02638          9730.09
    4     3    11     1     70.75833          3530.09
    4     5     6     1    116.24367           904.14
    4     5     9     1    134.16738           352.37
    4     5    10     1     63.35367          3062.85
    4     5    11     1    106.57709          1787.01
    4    10     5     1     67.58416          3022.27
    5     3    11     1     46.20346          6698.42
    5     4    10     1     49.06220          5947.47
    5     6     7     1    126.37706          1224.28
    5     6     8     1    160.59282           920.55
    5     6     9     1     73.16337          2653.74
    5     9     6     1     36.81787          9009.24
    5    11    12     1     77.00816          1730.32
    5    11    18     1     83.21869           283.47
    6     5     9     1     70.01872          2468.45
    6     5    10     1    104.16021           986.66
    6     5    11     1    125.20870           946.68
    6     7     8     1     54.49218         11360.99
    6     8     7     1     54.29000          7080.07
    7     6     8     1     71.21784          4809.56
    7     6     9     1    156.52575           628.41
    8     6     9     1     88.17319          1053.86
    9     5    10     1     71.19782           348.67
    9     5    11     1    102.90631           363.89
   10     5    11     1    125.35374          1356.16
   11    12    13     1     96.35820           251.69
   12    11    18     1     78.25728           611.06
   12    13    14     1    165.70621           686.80
   12    13    16     1     91.87007          1007.52
   13    14    15     1    151.92373            35.10
   13    14    16     1     59.92242          5963.25
   13    16    14     1     45.02279         10739.90
   13    16    17     1    139.85892            24.21
   14    13    16     1     75.05482          4032.14
   14    16    17     1     97.35243            22.97
   15    14    16     1     98.01453            25.99
