[ moleculetype ]
; name        nrexcl
res           1

[ atoms ]
;    nr  type  resnr resid  atom  cgnr     charge       mass
      1 TC3       1 res   C1        1      0.000     36.000
      2 TC3       1 res   C2        2      0.000     36.000
      3 TN6d      1 res   C3        3      0.000     36.000
      4 TC3       1 res   C4        4      0.000     36.000
      5 TC5       1 res   C5        5      0.000     36.000
      6 TN6d      1 res   C6        6      0.000     36.000
      7 TC5       1 res   C7        7      0.000     36.000
      8 TC5       1 res   C8        8      0.000     36.000
      9 TC5       1 res   C9        9      0.000     36.000
     10 SC3       1 res   C10      10      0.000     54.000
     11 N4a       1 res   C11      11      0.000     72.000

[ bonds ]
;  ai    aj   funct      b0(nm)          k(kJ/mol/nm^2)
    1     2     1      0.26774          42743.8
    2     3     1      0.26302          73756.9
    2    10     1      0.30658          69219.9
    3     4     1      0.28737          76089.0
    3     5     1      0.22623         170954.3
    3    10     1      0.26509         142861.8
    4     5     1      0.23324         112428.0
    5     6     1      0.17321         431310.3
    5     7     1      0.18390         393031.2
    5    10     1      0.24525         158426.3
    6     7     1      0.17947         266223.3
    7     8     1      0.24786         257285.6
    7     9     1      0.24839         220663.7
    8     9     1      0.28978         221130.9
   10    11     1      0.42494          47849.1

[ angles ]
;  ai    aj    ak  funct     th0(deg)        k(kJ/mol/rad^2)
    1     2     3     1    147.91747           814.35
    1     2    10     1     99.61371          2207.98
    2     3     4     1     70.62546          1982.25
    2     3     5     1     98.76418          2600.93
    2     3    10     1     70.96753          4853.35
    2    10     3     1     54.19837          5158.83
    2    10     5     1     84.02883          3237.53
    2    10    11     1     92.30499          1004.94
    3     2    10     1     54.83415          5359.68
    3     4     5     1     50.20628          5862.47
    3     5     4     1     77.41218          3260.64
    3     5     6     1     88.98601          2445.88
    3     5     7     1    147.85185          2444.15
    3     5    10     1     68.28470          4535.94
    3    10     5     1     52.44958          7225.93
    3    10    11     1    126.20465          1634.80
    4     3     5     1     52.38159          5378.13
    4     3    10     1     90.83932          2957.95
    4     5     6     1    123.39010           359.99
    4     5     7     1    110.61301          1122.33
    4     5    10     1    110.75055          2458.48
    5     3    10     1     59.26575          4705.23
    5     6     7     1     62.83320          5291.02
    5     7     6     1     56.91534          9939.64
    5     7     8     1    158.36611          2315.96
    5     7     9     1    129.50658          2481.21
    5    10    11     1     87.60662          2152.74
    6     5     7     1     60.25150          5420.41
    6     5    10     1    114.20486           554.64
    6     7     8     1    101.87220          2712.47
    6     7     9     1    172.26231          1444.09
    7     5    10     1    130.20952           927.80
    7     8     9     1     54.35366         10022.38
    7     9     8     1     54.18628         10331.03
    8     7     9     1     71.46009          6069.50
