1TPCN03528
14
    1res  C1    1    0.438  -0.022   0.416
    1res  C2    2    0.202   0.137   0.160
    1res  C3    3    0.255   0.212  -0.095
    1res  C4    4   -0.012   0.329  -0.254
    1res  C5    5   -0.052   0.081   0.068
    1res  C6    6   -0.223   0.305   0.015
    1res  C7    7   -0.219   0.193   0.275
    1res  C8    8   -0.334   0.006   0.162
    1res  C9    9   -0.490  -0.298   0.137
    1res  C10   10   -0.241  -0.021  -0.133
    1res  C11   11   -0.042  -0.226  -0.064
    1res  C12   12   -0.006  -0.261  -0.422
    1res  C13   13    0.177  -0.199   0.159
    1res  C14   14    0.327  -0.010  -0.170
  10.00000  10.00000  10.00000
