1TPCN06056
33
    1res  C1    1    1.022  -0.432  -0.140
    1res  C2    2    0.692  -0.300  -0.258
    1res  C3    3    0.815  -0.056  -0.317
    1res  C4    4    0.611  -0.082  -0.160
    1res  C5    5    0.839   0.041  -0.028
    1res  C6    6    1.104   0.219  -0.074
    1res  C7    7    0.974   0.439  -0.195
    1res  C8    8    1.190   0.478   0.020
    1res  C9    9    1.148   0.348   0.217
    1res  C10   10    0.978   0.190   0.173
    1res  C11   11    0.508   0.155  -0.132
    1res  C12   12    0.552   0.051   0.119
    1res  C13   13    0.312  -0.210  -0.058
    1res  C14   14    0.312  -0.059   0.237
    1res  C15   15    0.003  -0.039   0.196
    1res  C16   16   -0.101  -0.181  -0.028
    1res  C17   17   -0.263   0.024   0.000
    1res  C18   18   -0.524   0.063  -0.146
    1res  C19   19   -0.630  -0.157  -0.223
    1res  C20   20   -0.686  -0.138  -0.005
    1res  C21   21   -0.805  -0.092   0.271
    1res  C22   22   -0.867   0.110   0.464
    1res  C23   23   -1.057  -0.135   0.414
    1res  C24   24   -1.041  -0.285   0.236
    1res  C25   25   -0.951  -0.189   0.072
    1res  C26   26   -1.017   0.018  -0.127
    1res  C27   27   -1.049   0.213   0.057
    1res  C28   28   -1.260   0.114  -0.239
    1res  C29   29   -1.330  -0.042  -0.067
    1res  C30   30   -1.158  -0.232  -0.155
    1res  C31   31   -0.462  -0.126   0.087
    1res  C32   32   -0.112   0.191  -0.099
    1res  C33   33    0.201   0.190   0.088
  10.00000  10.00000  10.00000
