1TPCN01493
8
    1res  C1    1    0.610   0.105  -0.033
    1res  C2    2    0.215   0.047   0.025
    1res  C3    3   -0.173   0.049   0.101
    1res  C4    4   -0.361   0.221   0.166
    1res  C5    5   -0.432  -0.137  -0.076
    1res  C6    6   -0.220  -0.315  -0.212
    1res  C7    7   -0.077  -0.255   0.050
    1res  C8    8    0.019  -0.095  -0.178
  10.00000  10.00000  10.00000
