[ moleculetype ]
; name        nrexcl
res           1

[ atoms ]
;    nr  type  resnr resid  atom  cgnr     charge       mass
      1 TC5       1 res   C1        1      0.000     36.000
      2 TX4e      1 res   C2        2      0.000     36.000
      3 TC5       1 res   C3        3      0.000     36.000
      4 TN6d      1 res   C4        4      0.000     36.000

[ constraints ]
;  ai    aj   funct      b0(nm)
    1     2     1      0.26428
    2     3     1      0.26410
    1     4     1      0.31785
    3     4     1      0.31779

[ bonds ]
;  ai    aj   funct      b0(nm)          k(kJ/mol/nm^2)

[ angles ]
;  ai    aj    ak  funct     th0(deg)        k(kJ/mol/rad^2)
    1     2     3     1     77.69022          4202.24
    1     4     3     1     62.83901          5700.94
    2     1     4     1    109.43112          1799.56
    2     3     4     1    109.49730          1862.21

[ dihedrals ]
;  ai    aj    ak    al  funct   phi0(deg)        k(kJ/mol)   mult
    1     2     3     4     1   -178.91449       10.083      1
    1     4     3     2     1    179.04947       10.060      1
    2     1     4     3     1   -179.05065       10.059      1
    3     2     1     4     1    178.12298       10.803      1
