[ moleculetype ]
; name        nrexcl
res           1

[ atoms ]
;    nr  type  resnr resid  atom  cgnr     charge       mass
      1 C4        1 res   C1        1      0.000     72.000
      2 C1        1 res   C2        2      0.000     72.000
      3 SP2       1 res   C3        3      0.000     54.000
      4 TN3r      1 res   C4        4      0.000     36.000
      5 SN4a      1 res   C5        5      0.000     54.000
      6 TP1       1 res   C6        6      0.000     36.000
      7 SP4       1 res   C7        7      0.000     54.000
      8 TN6       1 res   C8        8      0.000     36.000

[ constraints ]
;  ai    aj   funct      b0(nm)
    2     3     1      0.30141
    1     4     1      0.28176
    7     8     1      0.28444

[ bonds ]
;  ai    aj   funct      b0(nm)          k(kJ/mol/nm^2)
    1     2     1      0.42215            859.9
    4     5     1      0.24388           2004.5
    5     7     1      0.28032          10808.6
    5     6     1      0.27266          10582.5
    5     8     1      0.27884          19360.4

[ angles ]
;  ai    aj    ak  funct     th0(deg)        k(kJ/mol/rad^2)
    1     2     3     1    100.86688            33.64
    1     4     5     1    117.72047             9.76
    2     1     4     1    103.16793           227.82
    4     5     6     1    149.92300            23.95
    4     5     7     1    122.66719            28.52
    4     5     8     1     87.39329            77.45
    5     7     8     1     59.13779          1102.36
    5     8     7     1     59.63455           836.22
    6     5     7     1     74.96741           705.21
    6     5     8     1    119.20680            41.94
    7     5     8     1     61.22768           654.34

[ dihedrals ]
;  ai    aj    ak    al  funct   phi0(deg)        k(kJ/mol)   mult
    1     4     5     6     1   -105.78868       19.315      1
    1     4     5     7     1    104.67651       23.498      1
    1     4     5     8     1     55.09506       21.562      1
    2     1     4     5     1   -142.71660       29.863      1
    3     2     1     4     1   -154.90337       21.625      1
    4     5     7     8     1    116.41205       18.181      1
    4     5     8     7     1    -46.25688       22.139      1
    6     5     7     8     1    -32.52990       26.850      1
    6     5     8     7     1    149.00811       26.544      1
