[ moleculetype ]
; name        nrexcl
res           1

[ atoms ]
;    nr  type  resnr resid  atom  cgnr     charge       mass
      1 TC3       1 res   C1        1      0.000     36.000
      2 TC3       1 res   C2        2      0.000     36.000
      3 SC3       1 res   C3        3      0.000     54.000
      4 TN1       1 res   C4        4      0.000     36.000
      5 TC3       1 res   C5        5      0.000     36.000
      6 TC5       1 res   C6        6      0.000     36.000
      7 N4a       1 res   C7        7      0.000     72.000
      8 TN6d      1 res   C8        8      0.000     36.000
      9 TC5       1 res   C9        9      0.000     36.000
     10 TC5       1 res   C10      10      0.000     36.000
     11 TC5       1 res   C11      11      0.000     36.000

[ constraints ]
;  ai    aj   funct      b0(nm)
    1     2     1      0.28001
   10    11     1      0.28958
    2     3     1      0.28509
    2     6     1      0.22431
    6     9     1      0.19133
    9    11     1      0.24829
    6     8     1      0.22010
    3     4     1      0.25302
    5     6     1      0.26742
    9    10     1      0.24892
    3     7     1      0.42393
    3     6     1      0.31196
    2     4     1      0.31240
    8     9     1      0.21959

[ bonds ]
;  ai    aj   funct      b0(nm)          k(kJ/mol/nm^2)
    4     5     1      0.26627           7263.0

[ angles ]
;  ai    aj    ak  funct     th0(deg)        k(kJ/mol/rad^2)
    1     2     3     1     73.25887           430.78
    1     2     4     1     97.51874           209.38
    1     2     6     1    142.98415           627.51
    2     3     4     1     70.73553          1431.15
    2     3     6     1     43.81363          3913.32
    2     3     7     1    105.21516           546.83
    2     4     3     1     59.43008          4051.85
    2     4     5     1     73.26912          1911.28
    2     6     3     1     61.68607          1465.00
    2     6     5     1     89.49712          1773.19
    2     6     8     1    131.27422           327.79
    2     6     9     1    101.45399           746.73
    3     2     4     1     49.83492          2782.28
    3     2     6     1     74.50030           845.53
    3     4     5     1    114.98927            74.68
    3     6     5     1     97.01445           925.05
    3     6     8     1    110.18401          1625.44
    3     6     9     1    153.45984           340.17
    4     2     6     1     73.59846           157.96
    4     3     6     1     70.22994           242.08
    4     3     7     1    125.99016            51.94
    4     5     6     1     75.87691           744.87
    5     6     8     1    137.84368           364.20
    5     6     9     1    103.24335           862.52
    6     3     7     1     72.68693          1589.21
    6     8     9     1     51.58893          4592.65
    6     9     8     1     64.34626          3109.95
    6     9    10     1    159.37715          1514.24
    6     9    11     1    128.10037          1570.87
    8     6     9     1     64.06476          4092.56
    8     9    10     1     95.70170          2168.75
    8     9    11     1    164.90880           941.66
    9    10    11     1     54.27427         11802.91
    9    11    10     1     54.47954          9567.90
   10     9    11     1     71.24619          6881.33

[ dihedrals ]
;  ai    aj    ak    al  funct   phi0(deg)        k(kJ/mol)   mult
    1     2     3     4     1     69.13895       14.915      1
    1     2     3     6     1    -18.91267        8.584      1
    1     2     3     7     1    -64.29048       13.532      1
    1     2     4     3     1   -115.22680       11.382      1
    1     2     4     5     1     11.09626       12.877      1
    1     2     6     3     1    148.75665       15.705      1
    1     2     6     5     1     51.54643       13.629      1
    1     2     6     8     1   -117.37591       15.689      1
    1     2     6     9     1    -50.58209       15.004      1
    2     3     4     5     1    129.20333       13.522      1
    2     3     6     5     1    -93.06822        5.583      1
    2     3     6     8     1     55.85585       10.730      1
    2     3     6     9     1    122.46523       10.623      1
    2     4     3     6     1   -135.22839        5.479      1
    2     4     3     7     1    -97.82200       14.800      1
    2     4     5     6     1    142.89940        7.025      1
    2     6     3     4     1    101.86701       11.295      1
    2     6     3     7     1    -46.24110       13.580      1
    2     6     5     4     1   -126.00744       11.338      1
    2     6     8     9     1    -97.02433        9.964      1
    2     6     9     8     1     51.21806       10.012      1
    2     6     9    10     1     55.63462       21.639      1
    2     6     9    11     1   -137.99040       12.241      1
    3     2     4     5     1    -53.84041       17.190      1
    3     2     6     5     1     84.06116        7.775      1
    3     2     6     8     1    -84.79155        8.449      1
    3     2     6     9     1    -20.09494        9.231      1
    3     4     2     6     1    102.91247       12.729      1
    3     4     5     6     1   -172.90894       15.460      1
    3     6     2     4     1   -129.91935        4.720      1
    3     6     5     4     1    169.95488       12.674      1
    3     6     8     9     1    -25.35293        9.288      1
    3     6     9     8     1     99.32350       12.002      1
    3     6     9    10     1    101.95269       21.839      1
    3     6     9    11     1    -89.17727       14.908      1
    4     2     3     6     1     91.35024       13.965      1
    4     2     3     7     1     47.37971       19.860      1
    4     2     6     5     1    133.97684        6.298      1
    4     2     6     8     1    -34.72232        8.473      1
    4     2     6     9     1     30.89188        8.533      1
    4     3     2     6     1    -91.35024       13.965      1
    4     3     6     5     1   -170.30801       13.294      1
    4     3     6     8     1    -20.87796       15.468      1
    4     3     6     9     1     50.54653       15.509      1
    4     5     6     8     1     40.41560       14.129      1
    4     5     6     9     1    -22.35568       11.400      1
    5     4     2     6     1   -131.88536       10.701      1
    5     4     3     6     1    172.25714       14.771      1
    5     4     3     7     1   -145.81814       17.884      1
    5     6     3     7     1     39.80207       12.206      1
    5     6     8     9     1    102.33684       12.103      1
    5     6     9     8     1    -40.39109       10.005      1
    5     6     9    10     1    -38.01056       21.755      1
    5     6     9    11     1    130.90213       12.918      1
    6     2     3     7     1    135.65379       12.171      1
    6     8     9    10     1      1.99132       10.754      1
    6     8     9    11     1     17.23621       26.300      1
    6     9    10    11     1    -11.36463       22.127      1
    6     9    11    10     1      4.97718       12.940      1
    7     3     6     8     1   -169.80875       13.625      1
    7     3     6     9     1   -101.74374       14.236      1
    8     6     9    10     1   -176.18232       21.514      1
    8     6     9    11     1     -6.92349       12.918      1
    8     9    10    11     1     -3.18289       10.044      1
    8     9    11    10     1    161.03745       24.064      1
