1TPCN00448
10
    1res  C1    1   -0.131  -0.197  -0.157
    1res  C2    2   -0.268  -0.066   0.056
    1res  C3    3   -0.326   0.171   0.045
    1res  C4    4   -0.089   0.131   0.067
    1res  C5    5    0.084   0.230   0.068
    1res  C6    6   -0.063   0.458   0.165
    1res  C7    7    0.174   0.069  -0.150
    1res  C8    8    0.386  -0.040  -0.250
    1res  C9    9    0.381  -0.097   0.002
    1res  C10   10    0.076  -0.170   0.179
  10.00000  10.00000  10.00000
