1TPCN01651
8
    1res  C1    1   -0.335  -0.154  -0.178
    1res  C2    2   -0.092   0.087   0.063
    1res  C3    3   -0.223   0.309   0.129
    1res  C4    4    0.170   0.052  -0.066
    1res  C5    5    0.490   0.157  -0.085
    1res  C6    6    0.096  -0.250  -0.031
    1res  C7    7   -0.108  -0.193   0.173
    1res  C8    8   -0.201  -0.379  -0.016
  10.00000  10.00000  10.00000
