1TPCN02297
10
    1res  C1    1    0.602   0.008  -0.132
    1res  C2    2    0.409   0.072   0.068
    1res  C3    3    0.127  -0.068  -0.038
    1res  C4    4    0.077  -0.231   0.174
    1res  C5    5   -0.041   0.034   0.110
    1res  C6    6   -0.287  -0.183   0.203
    1res  C7    7   -0.330  -0.004   0.013
    1res  C8    8   -0.437   0.180  -0.304
    1res  C9    9   -0.141   0.137  -0.094
    1res  C10   10    0.238   0.111  -0.151
  10.00000  10.00000  10.00000
