1TPCN04186
23
    1res  C1    1    0.513   0.066   0.441
    1res  C2    2    0.534   0.080   0.146
    1res  C3    3    0.293   0.060   0.267
    1res  C4    4    0.353  -0.126  -0.020
    1res  C5    5    0.611  -0.257  -0.149
    1res  C6    6    0.828  -0.085  -0.026
    1res  C7    7    0.707  -0.016  -0.290
    1res  C8    8    0.587  -0.175  -0.437
    1res  C9    9    0.408  -0.264  -0.302
    1res  C10   10    0.172   0.150  -0.051
    1res  C11   11    0.086   0.236   0.191
    1res  C12   12   -0.054  -0.128   0.268
    1res  C13   13   -0.184   0.132   0.242
    1res  C14   14   -0.123  -0.100  -0.084
    1res  C15   15   -0.376  -0.230  -0.037
    1res  C16   16   -0.500  -0.092  -0.200
    1res  C17   17   -0.807  -0.084  -0.180
    1res  C18   18   -0.983  -0.182  -0.018
    1res  C19   19   -0.895   0.008   0.112
    1res  C20   20   -0.666  -0.049   0.087
    1res  C21   21   -0.248  -0.092  -0.340
    1res  C22   22   -0.428   0.150  -0.347
    1res  C23   23   -0.268   0.225  -0.010
  10.00000  10.00000  10.00000
